      -----------------------------------------------------------      
     |                   =====================                   |     
     |                           x T B                           |     
     |                   =====================                   |     
     |                         S. Grimme                         |     
     |          Mulliken Center for Theoretical Chemistry        |     
     |                    University of Bonn                     |     
      -----------------------------------------------------------      

   * xtb version 6.6.1 (8d0f1dd) compiled by 'stahn@M-Bot' on 2023-08-01

   xtb is free software: you can redistribute it and/or modify it under
   the terms of the GNU Lesser General Public License as published by
   the Free Software Foundation, either version 3 of the License, or
   (at your option) any later version.
   
   xtb is distributed in the hope that it will be useful,
   but WITHOUT ANY WARRANTY; without even the implied warranty of
   MERCHANTABILITY or FITNESS FOR A PARTICULAR PURPOSE.  See the
   GNU Lesser General Public License for more details.
   
   Cite this work as:
   * C. Bannwarth, E. Caldeweyher, S. Ehlert, A. Hansen, P. Pracht,
     J. Seibert, S. Spicher, S. Grimme, WIREs Comput. Mol. Sci., 2020, 11,
     e01493. DOI: 10.1002/wcms.1493
   
   for GFN2-xTB:
   * C. Bannwarth, S. Ehlert and S. Grimme., J. Chem. Theory Comput., 2019,
     15, 1652-1671. DOI: 10.1021/acs.jctc.8b01176
   for GFN1-xTB:
   * S. Grimme, C. Bannwarth, P. Shushkov, J. Chem. Theory Comput., 2017,
     13, 1989-2009. DOI: 10.1021/acs.jctc.7b00118
   for GFN0-xTB:
   * P. Pracht, E. Caldeweyher, S. Ehlert, S. Grimme, ChemRxiv, 2019, preprint.
     DOI: 10.26434/chemrxiv.8326202.v1
   for GFN-FF:
   * S. Spicher and S. Grimme, Angew. Chem. Int. Ed., 2020, 59, 15665-15673.
     DOI: 10.1002/anie.202004239
   
   for ALPB and GBSA implicit solvation:
   * S. Ehlert, M. Stahn, S. Spicher, S. Grimme, J. Chem. Theory Comput.,
     2021, 17, 4250-4261. DOI: 10.1021/acs.jctc.1c00471
   
   for DFT-D4:
   * E. Caldeweyher, C. Bannwarth and S. Grimme, J. Chem. Phys., 2017,
     147, 034112. DOI: 10.1063/1.4993215
   * E. Caldeweyher, S. Ehlert, A. Hansen, H. Neugebauer, S. Spicher,
     C. Bannwarth and S. Grimme, J. Chem. Phys., 2019, 150, 154122.
     DOI: 10.1063/1.5090222
   * E. Caldeweyher, J.-M. Mewes, S. Ehlert and S. Grimme, Phys. Chem. Chem. Phys.
     2020, 22, 8499-8512. DOI: 10.1039/D0CP00502A
   
   for sTDA-xTB:
   * S. Grimme and C. Bannwarth, J. Chem. Phys., 2016, 145, 054103.
     DOI: 10.1063/1.4959605
   
   in the mass-spec context:
   * V. Asgeirsson, C. Bauer and S. Grimme, Chem. Sci., 2017, 8, 4879.
     DOI: 10.1039/c7sc00601b
   * J. Koopman and S. Grimme, ACS Omega 2019, 4, 12, 15120-15133.
     DOI: 10.1021/acsomega.9b02011
   
   for metadynamics refer to:
   * S. Grimme, J. Chem. Theory Comput., 2019, 155, 2847-2862
     DOI: 10.1021/acs.jctc.9b00143
   
   for SPH calculations refer to:
   * S. Spicher and S. Grimme, J. Chem. Theory Comput., 2021, 17, 1701-1714
     DOI: 10.1021/acs.jctc.0c01306
   
   with help from (in alphabetical order)
   P. Atkinson, C. Bannwarth, F. Bohle, G. Brandenburg, E. Caldeweyher
   M. Checinski, S. Dohm, S. Ehlert, S. Ehrlich, I. Gerasimov, C. Hölzer
   A. Katbashev, J. Koopman, C. Lavigne, S. Lehtola, F. März, M. Müller,
   F. Musil, H. Neugebauer, J. Pisarek, C. Plett, P. Pracht, F. Pultar,
   J. Seibert, P. Shushkov, S. Spicher, M. Stahn, M. Steiner, T. Strunk,
   J. Stückrath, T. Rose, and J. Unsleber
   
 * started run on 2024/10/04 at 20:45:35.304     

           -------------------------------------------------
          |                Calculation Setup                |
           -------------------------------------------------

          program call               : /home/abt-grimme/AK-bin/xtb input.xyz --input input.inp --opt
          hostname                   : boar012.thch.uni-bonn.de
          coordinate file            : input.xyz
          omp threads                :                     8

   ID    Z sym.   atoms
    1    6 C      1-146, 294-300, 306, 309-314, 323-468, 616-622, 628,
                  631-636, 645-790, 938-944, 950, 953-958, 967-1112,
                  1260-1266, 1272, 1275-1280, 1289-1434, 1582-1588, 1594,
                  1597-1602, 1611-1756, 1904-1910, 1916, 1919-1924,
                  1933-2078, 2226-2232, 2238, 2241-2246, 2255-2400,
                  2548-2554, 2560, 2563-2568, 2577-2722, 2870-2876, 2882,
                  2885-2890, 2899-3044, 3192-3198, 3204, 3207-3212,
                  3221-3366, 3514-3520, 3526, 3529-3534, 3543-3688,
                  3836-3842, 3848, 3851-3856
    2    1 H      147-293, 301-305, 307, 308, 315-322, 469-615, 623-627, 629,
                  630, 637-644, 791-937, 945-949, 951, 952, 959-966,
                  1113-1259, 1267-1271, 1273, 1274, 1281-1288, 1435-1581,
                  1589-1593, 1595, 1596, 1603-1610, 1757-1903, 1911-1915,
                  1917, 1918, 1925-1932, 2079-2225, 2233-2237, 2239, 2240,
                  2247-2254, 2401-2547, 2555-2559, 2561, 2562, 2569-2576,
                  2723-2869, 2877-2881, 2883, 2884, 2891-2898, 3045-3191,
                  3199-3203, 3205, 3206, 3213-3220, 3367-3513, 3521-3525,
                  3527, 3528, 3535-3542, 3689-3835, 3843-3847, 3849, 3850,
                  3857-3864

molecular fragmentation (1/2 indicates fragments):
111111111111111111111111111111111111111111111111111111111111111111111111
111111111111111111111111111111111111111111111111111111111111111111111111
111111111111111111111111111111111111111111111111111111111111111111111111
111111111111111111111111111111111111111111111111111111111111111111111111
111111111111111111111111111111111122222222222222222222222222222222222222
222222222222222222222222222222222222222222222222222222222222222222222222
222222222222222222222222222222222222222222222222222222222222222222222222
222222222222222222222222222222222222222222222222222222222222222222222222
222222222222222222222222222222222222222222222222222222222222222222222222
222222222222222222222222222222222222222222222222222222222222222222222222
222222222222222222222222222222222222222222222222222222222222222222222222
222222222222222222222222222222222222222222222222222222222222222222222222
222222222222222222222222222222222222222222222222222222222222222222222222
222222222222222222222222222222222222222222222222222222222222222222222222
222222222222222222222222222222222222222222222222222222222222222222222222
222222222222222222222222222222222222222222222222222222222222222222222222
222222222222222222222222222222222222222222222222222222222222222222222222
222222222222222222222222222222222222222222222222222222222222222222222222
222222222222222222222222222222222222222222222222222222222222222222222222
222222222222222222222222222222222222222222222222222222222222222222222222
222222222222222222222222222222222222222222222222222222222222222222222222
222222222222222222222222222222222222222222222222222222222222222222222222
222222222222222222222222222222222222222222222222222222222222222222222222
222222222222222222222222222222222222222222222222222222222222222222222222
222222222222222222222222222222222222222222222222222222222222222222222222
222222222222222222222222222222222222222222222222222222222222222222222222
222222222222222222222222222222222222222222222222222222222222222222222222
222222222222222222222222222222222222222222222222222222222222222222222222
222222222222222222222222222222222222222222222222222222222222222222222222
222222222222222222222222222222222222222222222222222222222222222222222222
222222222222222222222222222222222222222222222222222222222222222222222222
222222222222222222222222222222222222222222222222222222222222222222222222
222222222222222222222222222222222222222222222222222222222222222222222222
222222222222222222222222222222222222222222222222222222222222222222222222
222222222222222222222222222222222222222222222222222222222222222222222222
222222222222222222222222222222222222222222222222222222222222222222222222
222222222222222222222222222222222222222222222222222222222222222222222222
222222222222222222222222222222222222222222222222222222222222222222222222
222222222222222222222222222222222222222222222222222222222222222222222222
222222222222222222222222222222222222222222222222222222222222222222222222
222222222222222222222222222222222222222222222222222222222222222222222222
222222222222222222222222222222222222222222222222222222222222222222222222
222222222222222222222222222222222222222222222222222222222222222222222222
222222222222222222222222222222222222222222222222222222222222222222222222
222222222222222222222222222222222222222222222222222222222222222222222222
222222222222222222222222222222222222222222222222222222222222222222222222
222222222222222222222222222222222222222222222222222222222222222222222222
222222222222222222222222222222222222222222222222222222222222222222222222
222222222222222222222222222222222222222222222222222222222222222222222222
222222222222222222222222222222222222222222222222222222222222222222222222
222222222222222222222222222222222222222222222222222222222222222222222222
222222222222222222222222222222222222222222222222222222222222222222222222
222222222222222222222222222222222222222222222222222222222222222222222222
222222222222222222222222222222222222222222222222
# atoms in fragment 1/2:   322  3542
 fragment masses (1/2) :     2085.00    22935.05
CMA distance (Bohr)    :  27.351
constraining FC (au)   :  0.0500

           -------------------------------------------------
          |                 G F N 2 - x T B                 |
           -------------------------------------------------

        Reference                      10.1021/acs.jctc.8b01176
      * Hamiltonian:
        H0-scaling (s, p, d)           1.850000    2.230000    2.230000
        zeta-weighting                 0.500000
      * Dispersion:
        s8                             2.700000
        a1                             0.520000
        a2                             5.000000
        s9                             5.000000
      * Repulsion:
        kExp                           1.500000    1.000000
        rExp                           1.000000
      * Coulomb:
        alpha                          2.000000
        third order                    shell-resolved
        anisotropic                    true
        a3                             3.000000
        a5                             4.000000
        cn-shift                       1.200000
        cn-exp                         4.000000
        max-rad                        5.000000


          ...................................................
          :                      SETUP                      :
          :.................................................:
          :  # basis functions                9624          :
          :  # atomic orbitals                9624          :
          :  # shells                         5784          :
          :  # electrons                      9624          :
          :  max. iterations                   250          :
          :  Hamiltonian                  GFN2-xTB          :
          :  restarted?                      false          :
          :  GBSA solvation                  false          :
          :  PC potential                    false          :
          :  electronic temp.          300.0000000     K    :
          :  accuracy                    1.0000000          :
          :  -> integral cutoff          0.2500000E+02      :
          :  -> integral neglect         0.1000000E-07      :
          :  -> SCF convergence          0.1000000E-05 Eh   :
          :  -> wf. convergence          0.1000000E-03 e    :
          :  Broyden damping             0.4000000          :
          ...................................................

 iter      E             dE          RMSdq      gap      omega  full diag
   1  -5195.7835958 -0.519578E+04  0.369E+00    4.30       0.0  T
   2  -5198.3436705 -0.256007E+01  0.218E+00    4.30       1.0  T
   3  -5198.2556449  0.880256E-01  0.496E-01    4.12       1.0  T
   4  -5198.4648193 -0.209174E+00  0.245E-01    4.00       1.0  T
   5  -5198.6300571 -0.165238E+00  0.478E-02    4.09       1.0  T
   6  -5198.6330726 -0.301551E-02  0.296E-02    4.07       1.0  T
   7  -5198.6345142 -0.144155E-02  0.113E-02    4.09       1.0  T
   8  -5198.6348041 -0.289931E-03  0.293E-03    4.09       1.0  T
   9  -5198.6348207 -0.165746E-04  0.127E-03    4.09       1.3  T
  10  -5198.6348223 -0.165447E-05  0.561E-04    4.09       2.9  T
  11  -5198.6348227 -0.391452E-06  0.293E-04    4.09       5.5  T
  12  -5198.6348229 -0.167888E-06  0.992E-05    4.09      16.2  T

   *** convergence criteria satisfied after 12 iterations ***

         #    Occupation            Energy/Eh            Energy/eV
      -------------------------------------------------------------
         1        2.0000           -0.6524574             -17.7543
       ...           ...                  ...                  ...
      4806        2.0000           -0.3817160             -10.3870
      4807        2.0000           -0.3813492             -10.3770
      4808        2.0000           -0.3813486             -10.3770
      4809        2.0000           -0.3812024             -10.3730
      4810        2.0000           -0.3811779             -10.3724
      4811        2.0000           -0.3810168             -10.3680
      4812        2.0000           -0.3804574             -10.3528 (HOMO)
      4813                         -0.2301961              -6.2640 (LUMO)
      4814                         -0.2301656              -6.2631
      4815                         -0.2296120              -6.2481
      4816                         -0.2288264              -6.2267
      4817                         -0.2286905              -6.2230
       ...                                ...                  ...
      9624                          0.6805766              18.5194
      -------------------------------------------------------------
                  HL-Gap            0.1502613 Eh            4.0888 eV
             Fermi-level           -0.3053268 Eh           -8.3084 eV

 SCC (total)                   0 d,  0 h, 48 min,  9.213 sec
 SCC setup                      ...        0 min,  0.709 sec (  0.025%)
 Dispersion                     ...        0 min,  6.788 sec (  0.235%)
 classical contributions        ...        0 min,  0.166 sec (  0.006%)
 integral evaluation            ...        0 min, 11.791 sec (  0.408%)
 iterations                     ...       42 min, 13.128 sec ( 87.675%)
 molecular gradient             ...        5 min,  9.785 sec ( 10.722%)
 printout                       ...        0 min, 26.845 sec (  0.929%)

         :::::::::::::::::::::::::::::::::::::::::::::::::::::
         ::                     SUMMARY                     ::
         :::::::::::::::::::::::::::::::::::::::::::::::::::::
         :: total energy           -5104.099088357500 Eh    ::
         :: gradient norm              0.027094278151 Eh/a0 ::
         :: HOMO-LUMO gap              4.088818082539 eV    ::
         ::.................................................::
         :: SCC energy             -5198.634822901546 Eh    ::
         :: -> isotropic ES            0.265080316435 Eh    ::
         :: -> anisotropic ES          0.783148442933 Eh    ::
         :: -> anisotropic XC          3.253467395258 Eh    ::
         :: -> dispersion             -7.040481513112 Eh    ::
         :: repulsion energy          93.371732047130 Eh    ::
         :: add. restraining           0.000000000000 Eh    ::
         :: total charge              -0.000000000035 e     ::
         :::::::::::::::::::::::::::::::::::::::::::::::::::::

      ----------------------------------------------------------- 
     |              Fast Inertial Relaxation Engine              |
      ----------------------------------------------------------- 

          ...................................................
          :                      SETUP                      :
          :.................................................:
          :   energy convergence        0.5000000E-05 Eh    :
          :   grad. convergence         0.1000000E-02 Eh/a0 :
          :   optimization log               true           :
          :   writing optlog all                1     steps :
          :   Hessian reset                    20     steps :
          :   time step scaling                 5     steps :
          :   maximium step len.        1.0000000     a0    :
          :   initial time step         0.2500000     fs    :
          :   maximum time step         1.2500000     fs    :
          :   power reset thr           0.0000000     au    :
          :   alpha parameter           0.1000000           :
          :   BFGS update                   false           :
          :   preconditioning               false           :
          ...................................................

........................................................................
.............................. CYCLE    1 ..............................
........................................................................

 iter      E             dE          RMSdq      gap      omega  full diag
   1  -5198.6359457 -0.519864E+04  0.369E-04    4.09       0.0  T
   2  -5198.6359457 -0.206483E-07  0.228E-04    4.09       7.1  T
   3  -5198.6359457  0.428417E-07  0.979E-05    4.09      16.4  T
     SCC iter.                  ...       10 min, 39.634 sec
     gradient                   ...        5 min, 11.164 sec
 * total energy  : -5104.0991718 Eh     change    :  -0.8340193E-04 Eh
   gradient norm :     0.0254918 Eh/a0  converged?    E=F G=F D=F
   time step     :     0.2500000 fs     power     :   0.4293124E-08
   step length   :     0.0031754 a0     speed     :   0.3072362E-03

........................................................................
.............................. CYCLE    2 ..............................
........................................................................

 iter      E             dE          RMSdq      gap      omega  full diag
   1  -5198.6376160 -0.519864E+04  0.543E-04    4.09       0.0  T
   2  -5198.6376161 -0.396476E-07  0.333E-04    4.09       4.8  T
   3  -5198.6376160  0.604450E-07  0.120E-04    4.09      13.4  T
     SCC iter.                  ...       10 min, 35.614 sec
     gradient                   ...        5 min, 11.551 sec
 * total energy  : -5104.0992852 Eh     change    :  -0.1134281E-03 Eh
   gradient norm :     0.0232212 Eh/a0  converged?    E=F G=F D=F
   time step     :     0.2500000 fs     power     :   0.5730935E-08
   step length   :     0.0046683 a0     speed     :   0.4516848E-03

........................................................................
.............................. CYCLE    3 ..............................
........................................................................

 iter      E             dE          RMSdq      gap      omega  full diag
   1  -5198.6398314 -0.519864E+04  0.700E-04    4.09       0.0  T
   2  -5198.6398315 -0.616892E-07  0.430E-04    4.09       3.7  T
   3  -5198.6398314  0.958535E-07  0.147E-04    4.09      10.9  T
     SCC iter.                  ...       10 min, 35.847 sec
     gradient                   ...        5 min, 11.130 sec
 * total energy  : -5104.0994159 Eh     change    :  -0.1307009E-03 Eh
   gradient norm :     0.0205010 Eh/a0  converged?    E=F G=F D=F
   time step     :     0.2500000 fs     power     :   0.6470431E-08
   step length   :     0.0060240 a0     speed     :   0.5828521E-03

........................................................................
.............................. CYCLE    4 ..............................
........................................................................

 iter      E             dE          RMSdq      gap      omega  full diag
   1  -5198.6425938 -0.519864E+04  0.838E-04    4.09       0.0  T
   2  -5198.6425939 -0.821365E-07  0.516E-04    4.09       3.1  T
   3  -5198.6425938  0.150735E-06  0.178E-04    4.09       9.1  T
     SCC iter.                  ...       10 min, 35.811 sec
     gradient                   ...        5 min, 12.054 sec
 * total energy  : -5104.0995504 Eh     change    :  -0.1344973E-03 Eh
   gradient norm :     0.0176146 Eh/a0  converged?    E=F G=F D=F
   time step     :     0.2500000 fs     power     :   0.6506471E-08
   step length   :     0.0072078 a0     speed     :   0.6973962E-03

........................................................................
.............................. CYCLE    5 ..............................
........................................................................

 iter      E             dE          RMSdq      gap      omega  full diag
   1  -5198.6459083 -0.519865E+04  0.952E-04    4.09       0.0  T
   2  -5198.6459084 -0.973187E-07  0.588E-04    4.09       2.7  T
   3  -5198.6459082  0.232380E-06  0.212E-04    4.09       7.6  T
     SCC iter.                  ...       10 min, 34.144 sec
     gradient                   ...        5 min, 13.990 sec
 * total energy  : -5104.0996769 Eh     change    :  -0.1265634E-03 Eh
   gradient norm :     0.0149087 Eh/a0  converged?    E=F G=F D=F
   time step     :     0.2500000 fs     power     :   0.5954671E-08
   step length   :     0.0081923 a0     speed     :   0.7926471E-03

........................................................................
.............................. CYCLE    6 ..............................
........................................................................

 iter      E             dE          RMSdq      gap      omega  full diag
   1  -5198.6502111 -0.519865E+04  0.115E-03    4.09       0.0  T
   2  -5198.6502112 -0.130800E-06  0.718E-04    4.09       2.2  T
   3  -5198.6502107  0.460928E-06  0.287E-04    4.09       5.6  T
     SCC iter.                  ...       10 min, 37.010 sec
     gradient                   ...        5 min, 12.304 sec
 * total energy  : -5104.0997976 Eh     change    :  -0.1206081E-03 Eh
   gradient norm :     0.0125477 Eh/a0  converged?    E=F G=F D=F
   time step     :     0.2750000 fs     power     :   0.4902289E-08
   step length   :     0.0099393 a0     speed     :   0.8742536E-03

........................................................................
.............................. CYCLE    7 ..............................
........................................................................

 iter      E             dE          RMSdq      gap      omega  full diag
   1  -5198.6556781 -0.519866E+04  0.135E-03    4.09       0.0  T
   2  -5198.6556782 -0.159846E-06  0.850E-04    4.09       1.9  T
   3  -5198.6556774  0.827510E-06  0.376E-04    4.09       4.3  T
     SCC iter.                  ...       10 min, 37.807 sec
     gradient                   ...        5 min, 11.637 sec
 * total energy  : -5104.0999013 Eh     change    :  -0.1037233E-03 Eh
   gradient norm :     0.0110055 Eh/a0  converged?    E=F G=F D=F
   time step     :     0.3025000 fs     power     :   0.3555159E-08
   step length   :     0.0116769 a0     speed     :   0.9337179E-03

........................................................................
.............................. CYCLE    8 ..............................
........................................................................

 iter      E             dE          RMSdq      gap      omega  full diag
   1  -5198.6623779 -0.519866E+04  0.152E-03    4.09       0.0  T
   2  -5198.6623781 -0.185754E-06  0.969E-04    4.09       1.7  T
   3  -5198.6623768  0.126960E-05  0.465E-04    4.09       3.5  T
   4  -5198.6623783 -0.146537E-05  0.526E-05    4.09      30.6  T
   5  -5198.6623783 -0.495584E-08  0.262E-05    4.09      61.5  T
     SCC iter.                  ...       17 min, 37.980 sec
     gradient                   ...        5 min, 11.744 sec
 * total energy  : -5104.0999831 Eh     change    :  -0.8178698E-04 Eh
   gradient norm :     0.0102940 Eh/a0  converged?    E=F G=F D=F
   time step     :     0.3327500 fs     power     :   0.2197417E-08
   step length   :     0.0132320 a0     speed     :   0.9618839E-03

........................................................................
.............................. CYCLE    9 ..............................
........................................................................

 iter      E             dE          RMSdq      gap      omega  full diag
   1  -5198.6700852 -0.519867E+04  0.165E-03    4.09       0.0  T
   2  -5198.6700854 -0.228241E-06  0.106E-03    4.10       1.5  T
   3  -5198.6700838  0.163573E-05  0.546E-04    4.09       2.9  T
   4  -5198.6700858 -0.195052E-05  0.552E-05    4.10      29.1  T
   5  -5198.6700858 -0.668206E-08  0.276E-05    4.10      58.3  T
   6  -5198.6700858 -0.135242E-08  0.132E-05    4.10     122.1  T
     SCC iter.                  ...       21 min,  2.809 sec
     gradient                   ...        5 min, 12.330 sec
 * total energy  : -5104.1000391 Eh     change    :  -0.5603975E-04 Eh
   gradient norm :     0.0099957 Eh/a0  converged?    E=F G=F D=F
   time step     :     0.3660250 fs     power     :   0.1063938E-08
   step length   :     0.0144507 a0     speed     :   0.9549783E-03

........................................................................
.............................. CYCLE   10 ..............................
........................................................................

 iter      E             dE          RMSdq      gap      omega  full diag
   1  -5198.6783075 -0.519868E+04  0.173E-03    4.10       0.0  T
   2  -5198.6783077 -0.249067E-06  0.110E-03    4.10       1.5  T
   3  -5198.6783061  0.167733E-05  0.571E-04    4.10       2.8  T
   4  -5198.6783081 -0.202817E-05  0.602E-05    4.10      26.7  T
   5  -5198.6783081 -0.114242E-07  0.259E-05    4.10      62.0  T
   6  -5198.6783081 -0.763066E-09  0.132E-05    4.10     121.8  T
     SCC iter.                  ...       21 min, 10.047 sec
     gradient                   ...        5 min, 10.853 sec
 * total energy  : -5104.1000716 Eh     change    :  -0.3253318E-04 Eh
   gradient norm :     0.0098736 Eh/a0  converged?    E=F G=F D=F
   time step     :     0.4026275 fs     power     :   0.1783748E-09
   step length   :     0.0152816 a0     speed     :   0.9180829E-03

........................................................................
.............................. CYCLE   11 ..............................
........................................................................

 iter      E             dE          RMSdq      gap      omega  full diag
   1  -5198.6862346 -0.519869E+04  0.175E-03    4.10       0.0  T
   2  -5198.6862348 -0.260043E-06  0.108E-03    4.10       1.5  T
   3  -5198.6862334  0.144845E-05  0.544E-04    4.10       3.0  T
   4  -5198.6862351 -0.173339E-05  0.655E-05    4.10      24.5  T
   5  -5198.6862351 -0.163791E-07  0.248E-05    4.10      64.8  T
   6  -5198.6862351 -0.594810E-09  0.129E-05    4.10     125.1  T
     SCC iter.                  ...       21 min,  4.940 sec
     gradient                   ...        5 min, 10.075 sec
 * total energy  : -5104.1000841 Eh     change    :  -0.1242316E-04 Eh
   gradient norm :     0.0102378 Eh/a0  converged?    E=F G=F D=F
   time step     :     0.4428903 fs     power     :  -0.4275894E-09
   step length   :     0.0157088 a0     speed     :   0.8579486E-03

........................................................................
.............................. CYCLE   12 ..............................
........................................................................
 * reset velocities

 iter      E             dE          RMSdq      gap      omega  full diag
   1  -5198.6860812 -0.519869E+04  0.424E-05    4.10       0.0  T
   2  -5198.6860812 -0.553882E-09  0.317E-05    4.10      50.8  T
   3  -5198.6860812  0.370164E-09  0.143E-05    4.10     112.6  T
     SCC iter.                  ...       10 min, 34.830 sec
     gradient                   ...        5 min, 11.995 sec
 * total energy  : -5104.1000888 Eh     change    :  -0.4770229E-05 Eh
   gradient norm :     0.0100353 Eh/a0  converged?    E=T G=F D=T
   time step     :     0.2214451 fs     power     :   0.2830396E-09
   step length   :     0.0004707 a0     speed     :   0.5141582E-04

........................................................................
.............................. CYCLE   13 ..............................
........................................................................

 iter      E             dE          RMSdq      gap      omega  full diag
   1  -5198.6857734 -0.519869E+04  0.864E-05    4.10       0.0  T
   2  -5198.6857734 -0.182717E-08  0.618E-05    4.10      26.0  T
   3  -5198.6857734  0.312139E-08  0.270E-05    4.10      59.6  T
     SCC iter.                  ...       10 min, 35.931 sec
     gradient                   ...        5 min, 11.187 sec
 * total energy  : -5104.1000980 Eh     change    :  -0.9155469E-05 Eh
   gradient norm :     0.0096386 Eh/a0  converged?    E=F G=F D=T
   time step     :     0.2214451 fs     power     :   0.5381691E-09
   step length   :     0.0009321 a0     speed     :   0.1018137E-03

........................................................................
.............................. CYCLE   14 ..............................
........................................................................

 iter      E             dE          RMSdq      gap      omega  full diag
   1  -5198.6853132 -0.519869E+04  0.128E-04    4.10       0.0  T
   2  -5198.6853132 -0.388263E-08  0.906E-05    4.10      17.8  T
   3  -5198.6853132  0.717773E-08  0.391E-05    4.10      41.1  T
     SCC iter.                  ...       10 min, 38.071 sec
     gradient                   ...        5 min,  9.972 sec
 * total energy  : -5104.1001108 Eh     change    :  -0.1283528E-04 Eh
   gradient norm :     0.0090635 Eh/a0  converged?    E=F G=F D=F
   time step     :     0.2214451 fs     power     :   0.7459600E-09
   step length   :     0.0013751 a0     speed     :   0.1502087E-03

........................................................................
.............................. CYCLE   15 ..............................
........................................................................

 iter      E             dE          RMSdq      gap      omega  full diag
   1  -5198.6847022 -0.519868E+04  0.167E-04    4.10       0.0  T
   2  -5198.6847022 -0.603450E-08  0.117E-04    4.10      13.7  T
   3  -5198.6847022  0.123791E-07  0.505E-05    4.10      31.9  T
     SCC iter.                  ...       10 min, 36.784 sec
     gradient                   ...        5 min, 10.232 sec
 * total energy  : -5104.1001264 Eh     change    :  -0.1557232E-04 Eh
   gradient norm :     0.0083359 Eh/a0  converged?    E=F G=F D=F
   time step     :     0.2214451 fs     power     :   0.8917975E-09
   step length   :     0.0017914 a0     speed     :   0.1956775E-03

........................................................................
.............................. CYCLE   16 ..............................
........................................................................

 iter      E             dE          RMSdq      gap      omega  full diag
   1  -5198.6839423 -0.519868E+04  0.202E-04    4.10       0.0  T
   2  -5198.6839423 -0.880391E-08  0.142E-04    4.10      11.4  T
   3  -5198.6839423  0.189975E-07  0.608E-05    4.10      26.5  T
     SCC iter.                  ...       10 min, 35.219 sec
     gradient                   ...        5 min, 14.523 sec
 * total energy  : -5104.1001435 Eh     change    :  -0.1711831E-04 Eh
   gradient norm :     0.0074912 Eh/a0  converged?    E=F G=F D=F
   time step     :     0.2214451 fs     power     :   0.9674486E-09
   step length   :     0.0021733 a0     speed     :   0.2373881E-03

........................................................................
.............................. CYCLE   17 ..............................
........................................................................

 iter      E             dE          RMSdq      gap      omega  full diag
   1  -5198.6830352 -0.519868E+04  0.232E-04    4.10       0.0  T
   2  -5198.6830352 -0.112223E-07  0.163E-04    4.10       9.9  T
   3  -5198.6830352  0.260916E-07  0.700E-05    4.10      23.0  T
     SCC iter.                  ...       10 min, 37.136 sec
     gradient                   ...        5 min, 11.266 sec
 * total energy  : -5104.1001609 Eh     change    :  -0.1740629E-04 Eh
   gradient norm :     0.0065761 Eh/a0  converged?    E=F G=F D=F
   time step     :     0.2214451 fs     power     :   0.9720085E-09
   step length   :     0.0025140 a0     speed     :   0.2746139E-03

........................................................................
.............................. CYCLE   18 ..............................
........................................................................

 iter      E             dE          RMSdq      gap      omega  full diag
   1  -5198.6818632 -0.519868E+04  0.283E-04    4.10       0.0  T
   2  -5198.6818632 -0.163654E-07  0.200E-04    4.10       8.0  T
   3  -5198.6818632  0.419022E-07  0.871E-05    4.10      18.5  T
     SCC iter.                  ...       10 min, 34.581 sec
     gradient                   ...        5 min, 10.541 sec
 * total energy  : -5104.1001793 Eh     change    :  -0.1838177E-04 Eh
   gradient norm :     0.0055565 Eh/a0  converged?    E=F G=F D=F
   time step     :     0.2435896 fs     power     :   0.9022762E-09
   step length   :     0.0031217 a0     speed     :   0.3099859E-03

........................................................................
.............................. CYCLE   19 ..............................
........................................................................

 iter      E             dE          RMSdq      gap      omega  full diag
   1  -5198.6803704 -0.519868E+04  0.337E-04    4.10       0.0  T
   2  -5198.6803704 -0.217906E-07  0.239E-04    4.09       6.7  T
   3  -5198.6803703  0.639120E-07  0.105E-04    4.10      15.3  T
     SCC iter.                  ...       10 min, 36.915 sec
     gradient                   ...        5 min, 10.567 sec
 * total energy  : -5104.1001971 Eh     change    :  -0.1775062E-04 Eh
   gradient norm :     0.0045479 Eh/a0  converged?    E=F G=F D=F
   time step     :     0.2679486 fs     power     :   0.7550197E-09
   step length   :     0.0037816 a0     speed     :   0.3413816E-03

........................................................................
.............................. CYCLE   20 ..............................
........................................................................

 iter      E             dE          RMSdq      gap      omega  full diag
   1  -5198.6785007 -0.519868E+04  0.388E-04    4.09       0.0  T
   2  -5198.6785007 -0.260206E-07  0.275E-04    4.09       5.9  T
   3  -5198.6785006  0.930740E-07  0.123E-04    4.09      13.1  T
     SCC iter.                  ...       10 min, 36.854 sec
     gradient                   ...        5 min, 11.258 sec
 * total energy  : -5104.1002124 Eh     change    :  -0.1531082E-04 Eh
   gradient norm :     0.0037923 Eh/a0  converged?    E=F G=F D=F
   time step     :     0.2947435 fs     power     :   0.5474888E-09
   step length   :     0.0044564 a0     speed     :   0.3657284E-03
 * RMSD in coord.:     0.0015432 a0     energy gain  -0.1124007E-02 Eh

........................................................................
.............................. CYCLE   21 ..............................
........................................................................

 iter      E             dE          RMSdq      gap      omega  full diag
   1  -5198.6767787 -0.519868E+04  0.328E-04    4.09       0.0  T
   2  -5198.6767787 -0.153696E-07  0.229E-04    4.09       7.0  T
   3  -5198.6767786  0.697200E-07  0.104E-04    4.09      15.5  T
     SCC iter.                  ...       10 min, 36.353 sec
     gradient                   ...        5 min, 11.555 sec
 * total energy  : -5104.1002218 Eh     change    :  -0.9385545E-05 Eh
   gradient norm :     0.0035727 Eh/a0  converged?    E=F G=F D=F
   time step     :     0.2500000 fs     power     :   0.3864837E-09
   step length   :     0.0038564 a0     speed     :   0.3731297E-03

........................................................................
.............................. CYCLE   22 ..............................
........................................................................

 iter      E             dE          RMSdq      gap      omega  full diag
   1  -5198.6749878 -0.519867E+04  0.312E-04    4.09       0.0  T
   2  -5198.6749878 -0.116006E-07  0.216E-04    4.09       7.5  T
   3  -5198.6749877  0.674227E-07  0.101E-04    4.09      16.0  T
     SCC iter.                  ...       10 min, 34.590 sec
     gradient                   ...        5 min, 11.581 sec
 * total energy  : -5104.1002286 Eh     change    :  -0.6877311E-05 Eh
   gradient norm :     0.0036586 Eh/a0  converged?    E=F G=F D=F
   time step     :     0.2500000 fs     power     :   0.2744705E-09
   step length   :     0.0038188 a0     speed     :   0.3694877E-03

........................................................................
.............................. CYCLE   23 ..............................
........................................................................

 iter      E             dE          RMSdq      gap      omega  full diag
   1  -5198.6732110 -0.519867E+04  0.293E-04    4.09       0.0  T
   2  -5198.6732110 -0.791169E-08  0.197E-04    4.09       8.2  T
   3  -5198.6732110  0.530408E-07  0.901E-05    4.09      17.9  T
     SCC iter.                  ...       10 min, 33.653 sec
     gradient                   ...        5 min, 12.570 sec
 * total energy  : -5104.1002341 Eh     change    :  -0.5506505E-05 Eh
   gradient norm :     0.0038659 Eh/a0  converged?    E=F G=F D=F
   time step     :     0.2500000 fs     power     :   0.2221864E-09
   step length   :     0.0036993 a0     speed     :   0.3579272E-03

........................................................................
.............................. CYCLE   24 ..............................
........................................................................

 iter      E             dE          RMSdq      gap      omega  full diag
   1  -5198.6715246 -0.519867E+04  0.276E-04    4.09       0.0  T
   2  -5198.6715246 -0.513228E-08  0.178E-04    4.09       9.0  T
   3  -5198.6715246  0.299642E-07  0.695E-05    4.09      23.1  T
     SCC iter.                  ...       10 min, 33.670 sec
     gradient                   ...        5 min,  9.976 sec
 * total energy  : -5104.1002393 Eh     change    :  -0.5126923E-05 Eh
   gradient norm :     0.0040514 Eh/a0  converged?    E=F G=F D=F
   time step     :     0.2500000 fs     power     :   0.2209468E-09
   step length   :     0.0035501 a0     speed     :   0.3434888E-03

........................................................................
.............................. CYCLE   25 ..............................
........................................................................

 iter      E             dE          RMSdq      gap      omega  full diag
   1  -5198.6699870 -0.519867E+04  0.264E-04    4.09       0.0  T
   2  -5198.6699870 -0.351974E-08  0.163E-04    4.09       9.9  T
   3  -5198.6699870  0.828368E-08  0.399E-05    4.09      40.3  T
     SCC iter.                  ...       10 min, 36.076 sec
     gradient                   ...        5 min, 12.127 sec
 * total energy  : -5104.1002447 Eh     change    :  -0.5447472E-05 Eh
   gradient norm :     0.0041442 Eh/a0  converged?    E=F G=F D=F
   time step     :     0.2500000 fs     power     :   0.2525762E-09
   step length   :     0.0034139 a0     speed     :   0.3303179E-03

........................................................................
.............................. CYCLE   26 ..............................
........................................................................

 iter      E             dE          RMSdq      gap      omega  full diag
   1  -5198.6685067 -0.519867E+04  0.286E-04    4.09       0.0  T
   2  -5198.6685067 -0.323871E-08  0.170E-04    4.09       9.5  T
   3  -5198.6685067  0.175987E-08  0.261E-05    4.09      61.7  T
     SCC iter.                  ...       10 min, 37.146 sec
     gradient                   ...        5 min, 13.888 sec
 * total energy  : -5104.1002515 Eh     change    :  -0.6812391E-05 Eh
   gradient norm :     0.0041137 Eh/a0  converged?    E=F G=F D=F
   time step     :     0.2750000 fs     power     :   0.2974904E-09
   step length   :     0.0036597 a0     speed     :   0.3219007E-03

........................................................................
.............................. CYCLE   27 ..............................
........................................................................

 iter      E             dE          RMSdq      gap      omega  full diag
   1  -5198.6671558 -0.519867E+04  0.315E-04    4.09       0.0  T
   2  -5198.6671558 -0.342789E-08  0.186E-04    4.09       8.7  T
   3  -5198.6671558  0.402451E-08  0.334E-05    4.09      48.1  T
     SCC iter.                  ...       10 min, 39.485 sec
     gradient                   ...        5 min, 10.503 sec
 * total energy  : -5104.1002600 Eh     change    :  -0.8461877E-05 Eh
   gradient norm :     0.0039395 Eh/a0  converged?    E=F G=F D=F
   time step     :     0.3025000 fs     power     :   0.3397838E-09
   step length   :     0.0039941 a0     speed     :   0.3193807E-03

........................................................................
.............................. CYCLE   28 ..............................
........................................................................

 iter      E             dE          RMSdq      gap      omega  full diag
   1  -5198.6660212 -0.519867E+04  0.358E-04    4.09       0.0  T
   2  -5198.6660212 -0.480668E-08  0.211E-04    4.09       7.6  T
   3  -5198.6660211  0.190048E-07  0.623E-05    4.09      25.8  T
     SCC iter.                  ...       10 min, 35.154 sec
     gradient                   ...        5 min, 13.481 sec
 * total energy  : -5104.1002700 Eh     change    :  -0.9987034E-05 Eh
   gradient norm :     0.0036294 Eh/a0  converged?    E=F G=F D=F
   time step     :     0.3327500 fs     power     :   0.3645641E-09
   step length   :     0.0044368 a0     speed     :   0.3225281E-03

........................................................................
.............................. CYCLE   29 ..............................
........................................................................

 iter      E             dE          RMSdq      gap      omega  full diag
   1  -5198.6652076 -0.519867E+04  0.409E-04    4.09       0.0  T
   2  -5198.6652076 -0.735145E-08  0.244E-04    4.09       6.6  T
   3  -5198.6652076  0.526234E-07  0.101E-04    4.09      16.0  T
     SCC iter.                  ...       10 min, 36.906 sec
     gradient                   ...        5 min, 14.096 sec
 * total energy  : -5104.1002811 Eh     change    :  -0.1111033E-04 Eh
   gradient norm :     0.0032268 Eh/a0  converged?    E=F G=F D=F
   time step     :     0.3660250 fs     power     :   0.3603022E-09
   step length   :     0.0049936 a0     speed     :   0.3300009E-03

........................................................................
.............................. CYCLE   30 ..............................
........................................................................

 iter      E             dE          RMSdq      gap      omega  full diag
   1  -5198.6648339 -0.519866E+04  0.463E-04    4.09       0.0  T
   2  -5198.6648339 -0.104073E-07  0.281E-04    4.09       5.7  T
   3  -5198.6648338  0.943946E-07  0.134E-04    4.09      12.0  T
     SCC iter.                  ...       10 min, 35.962 sec
     gradient                   ...        5 min, 11.354 sec
 * total energy  : -5104.1002925 Eh     change    :  -0.1139095E-04 Eh
   gradient norm :     0.0028307 Eh/a0  converged?    E=F G=F D=F
   time step     :     0.4026275 fs     power     :   0.3235538E-09
   step length   :     0.0056503 a0     speed     :   0.3394585E-03

........................................................................
.............................. CYCLE   31 ..............................
........................................................................

 iter      E             dE          RMSdq      gap      omega  full diag
   1  -5198.6650076 -0.519867E+04  0.511E-04    4.09       0.0  T
   2  -5198.6650076 -0.132222E-07  0.314E-04    4.09       5.1  T
   3  -5198.6650075  0.127402E-06  0.155E-04    4.09      10.4  T
     SCC iter.                  ...       10 min, 34.750 sec
     gradient                   ...        5 min, 12.765 sec
 * total energy  : -5104.1003032 Eh     change    :  -0.1076639E-04 Eh
   gradient norm :     0.0025774 Eh/a0  converged?    E=F G=F D=F
   time step     :     0.4428903 fs     power     :   0.2641807E-09
   step length   :     0.0063674 a0     speed     :   0.3477617E-03

........................................................................
.............................. CYCLE   32 ..............................
........................................................................

 iter      E             dE          RMSdq      gap      omega  full diag
   1  -5198.6657644 -0.519867E+04  0.542E-04    4.09       0.0  T
   2  -5198.6657645 -0.151185E-07  0.332E-04    4.09       4.8  T
   3  -5198.6657643  0.132593E-06  0.156E-04    4.09      10.3  T
     SCC iter.                  ...       10 min, 37.673 sec
     gradient                   ...        5 min, 10.269 sec
 * total energy  : -5104.1003129 Eh     change    :  -0.9679065E-05 Eh
   gradient norm :     0.0025321 Eh/a0  converged?    E=F G=F D=F
   time step     :     0.4871793 fs     power     :   0.2042467E-09
   step length   :     0.0070839 a0     speed     :   0.3517220E-03

........................................................................
.............................. CYCLE   33 ..............................
........................................................................

 iter      E             dE          RMSdq      gap      omega  full diag
   1  -5198.6670043 -0.519867E+04  0.548E-04    4.09       0.0  T
   2  -5198.6670043 -0.157333E-07  0.331E-04    4.09       4.9  T
   3  -5198.6670042  0.903383E-07  0.129E-04    4.09      12.4  T
     SCC iter.                  ...       10 min, 38.277 sec
     gradient                   ...        5 min, 12.121 sec
 * total energy  : -5104.1003218 Eh     change    :  -0.8870147E-05 Eh
   gradient norm :     0.0026277 Eh/a0  converged?    E=F G=F D=F
   time step     :     0.5358972 fs     power     :   0.1654920E-09
   step length   :     0.0077608 a0     speed     :   0.3503004E-03

........................................................................
.............................. CYCLE   34 ..............................
........................................................................

 iter      E             dE          RMSdq      gap      omega  full diag
   1  -5198.6684939 -0.519867E+04  0.530E-04    4.09       0.0  T
   2  -5198.6684939 -0.149885E-07  0.316E-04    4.09       5.1  T
   3  -5198.6684939  0.227838E-07  0.728E-05    4.09      22.1  T
     SCC iter.                  ...       10 min, 36.204 sec
     gradient                   ...        5 min, 10.538 sec
 * total energy  : -5104.1003309 Eh     change    :  -0.9065538E-05 Eh
   gradient norm :     0.0027521 Eh/a0  converged?    E=F G=F D=F
   time step     :     0.5894869 fs     power     :   0.1579524E-09
   step length   :     0.0084322 a0     speed     :   0.3460029E-03

........................................................................
.............................. CYCLE   35 ..............................
........................................................................

 iter      E             dE          RMSdq      gap      omega  full diag
   1  -5198.6699225 -0.519867E+04  0.495E-04    4.09       0.0  T
   2  -5198.6699225 -0.115306E-07  0.300E-04    4.09       5.4  T
   3  -5198.6699225  0.203190E-07  0.652E-05    4.09      24.7  T
     SCC iter.                  ...       10 min, 35.309 sec
     gradient                   ...        5 min, 12.891 sec
 * total energy  : -5104.1003413 Eh     change    :  -0.1046168E-04 Eh
   gradient norm :     0.0027670 Eh/a0  converged?    E=F G=F D=F
   time step     :     0.6484356 fs     power     :   0.1769747E-09
   step length   :     0.0091986 a0     speed     :   0.3431388E-03

........................................................................
.............................. CYCLE   36 ..............................
........................................................................

 iter      E             dE          RMSdq      gap      omega  full diag
   1  -5198.6709651 -0.519867E+04  0.473E-04    4.09       0.0  T
   2  -5198.6709651 -0.873115E-08  0.292E-04    4.09       5.5  T
   3  -5198.6709651  0.334167E-07  0.779E-05    4.09      20.7  T
     SCC iter.                  ...       10 min, 34.872 sec
     gradient                   ...        5 min, 10.257 sec
 * total energy  : -5104.1003540 Eh     change    :  -0.1268847E-04 Eh
   gradient norm :     0.0025788 Eh/a0  converged?    E=F G=F D=F
   time step     :     0.7132792 fs     power     :   0.1985497E-09
   step length   :     0.0101821 a0     speed     :   0.3452967E-03

........................................................................
.............................. CYCLE   37 ..............................
........................................................................

 iter      E             dE          RMSdq      gap      omega  full diag
   1  -5198.6713711 -0.519867E+04  0.471E-04    4.09       0.0  T
   2  -5198.6713711 -0.137434E-07  0.305E-04    4.09       5.3  T
   3  -5198.6713711  0.930768E-07  0.122E-04    4.09      13.2  T
     SCC iter.                  ...       10 min, 36.296 sec
     gradient                   ...        5 min, 11.779 sec
 * total energy  : -5104.1003684 Eh     change    :  -0.1436502E-04 Eh
   gradient norm :     0.0024483 Eh/a0  converged?    E=F G=F D=F
   time step     :     0.7846071 fs     power     :   0.1989781E-09
   step length   :     0.0114388 a0     speed     :   0.3526508E-03

........................................................................
.............................. CYCLE   38 ..............................
........................................................................

 iter      E             dE          RMSdq      gap      omega  full diag
   1  -5198.6710698 -0.519867E+04  0.500E-04    4.09       0.0  T
   2  -5198.6710698 -0.199980E-07  0.318E-04    4.09       5.1  T
   3  -5198.6710697  0.813197E-07  0.119E-04    4.10      13.6  T
     SCC iter.                  ...       10 min, 33.806 sec
     gradient                   ...        5 min, 12.791 sec
 * total energy  : -5104.1003844 Eh     change    :  -0.1605831E-04 Eh
   gradient norm :     0.0026279 Eh/a0  converged?    E=F G=F D=F
   time step     :     0.8630678 fs     power     :   0.2075149E-09
   step length   :     0.0129114 a0     speed     :   0.3618620E-03

........................................................................
.............................. CYCLE   39 ..............................
........................................................................

 iter      E             dE          RMSdq      gap      omega  full diag
   1  -5198.6703388 -0.519867E+04  0.575E-04    4.09       0.0  T
   2  -5198.6703388 -0.179698E-07  0.348E-04    4.09       4.6  T
   3  -5198.6703388  0.309356E-07  0.829E-05    4.09      19.4  T
     SCC iter.                  ...       10 min, 37.976 sec
     gradient                   ...        5 min, 11.698 sec
 * total energy  : -5104.1004050 Eh     change    :  -0.2060988E-04 Eh
   gradient norm :     0.0026040 Eh/a0  converged?    E=F G=F D=F
   time step     :     0.9493746 fs     power     :   0.2559379E-09
   step length   :     0.0146840 a0     speed     :   0.3741307E-03

........................................................................
.............................. CYCLE   40 ..............................
........................................................................

 iter      E             dE          RMSdq      gap      omega  full diag
   1  -5198.6698073 -0.519867E+04  0.672E-04    4.09       0.0  T
   2  -5198.6698073 -0.192449E-07  0.408E-04    4.09       3.9  T
   3  -5198.6698072  0.596947E-07  0.108E-04    4.09      14.9  T
     SCC iter.                  ...       10 min, 36.897 sec
     gradient                   ...        5 min, 12.964 sec
 * total energy  : -5104.1004307 Eh     change    :  -0.2561901E-04 Eh
   gradient norm :     0.0022506 Eh/a0  converged?    E=F G=F D=F
   time step     :     1.0443120 fs     power     :   0.2844161E-09
   step length   :     0.0170736 a0     speed     :   0.3954658E-03

........................................................................
.............................. CYCLE   41 ..............................
........................................................................

 iter      E             dE          RMSdq      gap      omega  full diag
   1  -5198.6703279 -0.519867E+04  0.730E-04    4.09       0.0  T
   2  -5198.6703279 -0.244545E-07  0.451E-04    4.10       3.6  T
   3  -5198.6703278  0.104142E-06  0.137E-04    4.09      11.7  T
     SCC iter.                  ...       10 min, 37.773 sec
     gradient                   ...        5 min, 10.165 sec
 * total energy  : -5104.1004584 Eh     change    :  -0.2772207E-04 Eh
   gradient norm :     0.0022816 Eh/a0  converged?    E=F G=F D=F
   time step     :     1.1487432 fs     power     :   0.2647196E-09
   step length   :     0.0200501 a0     speed     :   0.4221912E-03

........................................................................
.............................. CYCLE   42 ..............................
........................................................................

 iter      E             dE          RMSdq      gap      omega  full diag
   1  -5198.6721338 -0.519867E+04  0.781E-04    4.10       0.0  T
   2  -5198.6721339 -0.189011E-07  0.466E-04    4.10       3.5  T
   3  -5198.6721338  0.220653E-07  0.761E-05    4.10      21.2  T
     SCC iter.                  ...       10 min, 33.581 sec
     gradient                   ...        5 min, 10.878 sec
 * total energy  : -5104.1004900 Eh     change    :  -0.3163624E-04 Eh
   gradient norm :     0.0024938 Eh/a0  converged?    E=F G=F D=F
   time step     :     1.2500000 fs     power     :   0.3007532E-09
   step length   :     0.0230093 a0     speed     :   0.4452541E-03
 * RMSD in coord.:     0.0025869 a0     energy gain  -0.2776482E-03 Eh

........................................................................
.............................. CYCLE   43 ..............................
........................................................................

 iter      E             dE          RMSdq      gap      omega  full diag
   1  -5198.6724866 -0.519867E+04  0.152E-04    4.10       0.0  T
   2  -5198.6724866 -0.842192E-09  0.888E-05    4.10      18.1  T
   3  -5198.6724866  0.455202E-08  0.325E-05    4.10      49.5  T
     SCC iter.                  ...       10 min, 36.707 sec
     gradient                   ...        5 min, 11.680 sec
 * total energy  : -5104.1004966 Eh     change    :  -0.6565442E-05 Eh
   gradient norm :     0.0024396 Eh/a0  converged?    E=F G=F D=F
   time step     :     0.2500000 fs     power     :   0.3415458E-09
   step length   :     0.0044722 a0     speed     :   0.4327121E-03

........................................................................
.............................. CYCLE   44 ..............................
........................................................................

 iter      E             dE          RMSdq      gap      omega  full diag
   1  -5198.6728117 -0.519867E+04  0.158E-04    4.10       0.0  T
   2  -5198.6728117 -0.107411E-08  0.944E-05    4.10      17.0  T
   3  -5198.6728117  0.322780E-08  0.270E-05    4.10      59.5  T
     SCC iter.                  ...       10 min, 35.462 sec
     gradient                   ...        5 min, 13.187 sec
 * total energy  : -5104.1005037 Eh     change    :  -0.7090220E-05 Eh
   gradient norm :     0.0022358 Eh/a0  converged?    E=F G=F D=F
   time step     :     0.2500000 fs     power     :   0.3680609E-09
   step length   :     0.0043990 a0     speed     :   0.4256245E-03

........................................................................
.............................. CYCLE   45 ..............................
........................................................................

 iter      E             dE          RMSdq      gap      omega  full diag
   1  -5198.6730969 -0.519867E+04  0.175E-04    4.10       0.0  T
   2  -5198.6730969 -0.151795E-08  0.106E-04    4.10      15.2  T
   3  -5198.6730969  0.607452E-08  0.352E-05    4.10      45.7  T
     SCC iter.                  ...       10 min, 34.454 sec
     gradient                   ...        5 min, 10.912 sec
 * total energy  : -5104.1005110 Eh     change    :  -0.7332099E-05 Eh
   gradient norm :     0.0019519 Eh/a0  converged?    E=F G=F D=F
   time step     :     0.2500000 fs     power     :   0.3715335E-09
   step length   :     0.0043803 a0     speed     :   0.4238220E-03

........................................................................
.............................. CYCLE   46 ..............................
........................................................................

 iter      E             dE          RMSdq      gap      omega  full diag
   1  -5198.6733333 -0.519867E+04  0.191E-04    4.10       0.0  T
   2  -5198.6733333 -0.203181E-08  0.117E-04    4.10      13.7  T
   3  -5198.6733333  0.796535E-08  0.397E-05    4.10      40.5  T
     SCC iter.                  ...       10 min, 35.506 sec
     gradient                   ...        5 min, 10.736 sec
 * total energy  : -5104.1005180 Eh     change    :  -0.7004696E-05 Eh
   gradient norm :     0.0016887 Eh/a0  converged?    E=F G=F D=F
   time step     :     0.2500000 fs     power     :   0.3532004E-09
   step length   :     0.0044060 a0     speed     :   0.4263045E-03

........................................................................
.............................. CYCLE   47 ..............................
........................................................................

 iter      E             dE          RMSdq      gap      omega  full diag
   1  -5198.6735164 -0.519867E+04  0.201E-04    4.10       0.0  T
   2  -5198.6735164 -0.214004E-08  0.123E-04    4.10      13.1  T
   3  -5198.6735164  0.868113E-08  0.404E-05    4.10      39.9  T
     SCC iter.                  ...       10 min, 35.875 sec
     gradient                   ...        5 min, 10.819 sec
 * total energy  : -5104.1005245 Eh     change    :  -0.6501357E-05 Eh
   gradient norm :     0.0015784 Eh/a0  converged?    E=F G=F D=F
   time step     :     0.2500000 fs     power     :   0.3245480E-09
   step length   :     0.0044545 a0     speed     :   0.4309974E-03

........................................................................
.............................. CYCLE   48 ..............................
........................................................................

 iter      E             dE          RMSdq      gap      omega  full diag
   1  -5198.6736615 -0.519867E+04  0.218E-04    4.10       0.0  T
   2  -5198.6736615 -0.228465E-08  0.133E-04    4.10      12.1  T
   3  -5198.6736615  0.892851E-08  0.405E-05    4.10      39.7  T
     SCC iter.                  ...       10 min, 34.697 sec
     gradient                   ...        5 min, 11.627 sec
 * total energy  : -5104.1005310 Eh     change    :  -0.6514562E-05 Eh
   gradient norm :     0.0015986 Eh/a0  converged?    E=F G=F D=F
   time step     :     0.2750000 fs     power     :   0.2950941E-09
   step length   :     0.0049424 a0     speed     :   0.4347276E-03

........................................................................
.............................. CYCLE   49 ..............................
........................................................................

 iter      E             dE          RMSdq      gap      omega  full diag
   1  -5198.6737677 -0.519867E+04  0.220E-04    4.10       0.0  T
   2  -5198.6737677 -0.204273E-08  0.133E-04    4.10      12.1  T
   3  -5198.6737677  0.585351E-08  0.336E-05    4.10      47.9  T
     SCC iter.                  ...       10 min, 34.743 sec
     gradient                   ...        5 min, 11.459 sec
 * total energy  : -5104.1005378 Eh     change    :  -0.6802308E-05 Eh
   gradient norm :     0.0017497 Eh/a0  converged?    E=F G=F D=F
   time step     :     0.3025000 fs     power     :   0.2833109E-09
   step length   :     0.0054380 a0     speed     :   0.4348374E-03

........................................................................
.............................. CYCLE   50 ..............................
........................................................................

 iter      E             dE          RMSdq      gap      omega  full diag
   1  -5198.6738369 -0.519867E+04  0.213E-04    4.10       0.0  T
   2  -5198.6738369 -0.151431E-08  0.126E-04    4.10      12.7  T
   3  -5198.6738369  0.217369E-08  0.228E-05    4.10      70.4  T
     SCC iter.                  ...       10 min, 37.011 sec
     gradient                   ...        5 min, 11.319 sec
 * total energy  : -5104.1005454 Eh     change    :  -0.7564578E-05 Eh
   gradient norm :     0.0018774 Eh/a0  converged?    E=F G=F D=F
   time step     :     0.3327500 fs     power     :   0.2917051E-09
   step length   :     0.0059436 a0     speed     :   0.4320599E-03

........................................................................
.............................. CYCLE   51 ..............................
........................................................................

 iter      E             dE          RMSdq      gap      omega  full diag
   1  -5198.6738649 -0.519867E+04  0.206E-04    4.10       0.0  T
   2  -5198.6738649 -0.877662E-09  0.122E-04    4.10      13.2  T
   3  -5198.6738649  0.101227E-08  0.172E-05    4.10      93.4  T
     SCC iter.                  ...       10 min, 35.099 sec
     gradient                   ...        5 min, 10.103 sec
 * total energy  : -5104.1005542 Eh     change    :  -0.8787132E-05 Eh
   gradient norm :     0.0018847 Eh/a0  converged?    E=F G=F D=F
   time step     :     0.3660250 fs     power     :   0.3115770E-09
   step length   :     0.0065073 a0     speed     :   0.4300343E-03

........................................................................
.............................. CYCLE   52 ..............................
........................................................................

 iter      E             dE          RMSdq      gap      omega  full diag
   1  -5198.6738354 -0.519867E+04  0.215E-04    4.10       0.0  T
   2  -5198.6738354 -0.111686E-08  0.128E-04    4.10      12.5  T
   3  -5198.6738354  0.300133E-08  0.250E-05    4.10      64.4  T
     SCC iter.                  ...       10 min, 34.366 sec
     gradient                   ...        5 min, 11.169 sec
 * total energy  : -5104.1005644 Eh     change    :  -0.1020803E-04 Eh
   gradient norm :     0.0017470 Eh/a0  converged?    E=F G=F D=F
   time step     :     0.4026275 fs     power     :   0.3276281E-09
   step length   :     0.0071867 a0     speed     :   0.4317565E-03

........................................................................
.............................. CYCLE   53 ..............................
........................................................................

 iter      E             dE          RMSdq      gap      omega  full diag
   1  -5198.6737141 -0.519867E+04  0.242E-04    4.10       0.0  T
   2  -5198.6737141 -0.226191E-08  0.148E-04    4.10      10.9  T
   3  -5198.6737141  0.974342E-08  0.426E-05    4.10      37.7  T
     SCC iter.                  ...       10 min, 35.500 sec
     gradient                   ...        5 min,  9.735 sec
 * total energy  : -5104.1005758 Eh     change    :  -0.1141837E-04 Eh
   gradient norm :     0.0015567 Eh/a0  converged?    E=F G=F D=F
   time step     :     0.4428903 fs     power     :   0.3274165E-09
   step length   :     0.0080300 a0     speed     :   0.4385653E-03

........................................................................
.............................. CYCLE   54 ..............................
........................................................................

 iter      E             dE          RMSdq      gap      omega  full diag
   1  -5198.6734542 -0.519867E+04  0.276E-04    4.10       0.0  T
   2  -5198.6734542 -0.346154E-08  0.171E-04    4.10       9.4  T
   3  -5198.6734542  0.157625E-07  0.533E-05    4.10      30.2  T
     SCC iter.                  ...       10 min, 35.052 sec
     gradient                   ...        5 min, 12.183 sec
 * total energy  : -5104.1005879 Eh     change    :  -0.1214715E-04 Eh
   gradient norm :     0.0015081 Eh/a0  converged?    E=F G=F D=F
   time step     :     0.4871793 fs     power     :   0.3143413E-09
   step length   :     0.0090493 a0     speed     :   0.4493074E-03

........................................................................
.............................. CYCLE   55 ..............................
........................................................................

 iter      E             dE          RMSdq      gap      omega  full diag
   1  -5198.6730344 -0.519867E+04  0.299E-04    4.10       0.0  T
   2  -5198.6730344 -0.323416E-08  0.183E-04    4.10       8.8  T
   3  -5198.6730344  0.126702E-07  0.487E-05    4.10      33.1  T
     SCC iter.                  ...       10 min, 37.928 sec
     gradient                   ...        5 min, 11.513 sec
 * total energy  : -5104.1006010 Eh     change    :  -0.1305516E-04 Eh
   gradient norm :     0.0016155 Eh/a0  converged?    E=F G=F D=F
   time step     :     0.5358972 fs     power     :   0.3088093E-09
   step length   :     0.0101794 a0     speed     :   0.4594677E-03

........................................................................
.............................. CYCLE   56 ..............................
........................................................................

 iter      E             dE          RMSdq      gap      omega  full diag
   1  -5198.6725125 -0.519867E+04  0.313E-04    4.10       0.0  T
   2  -5198.6725125 -0.233103E-08  0.186E-04    4.10       8.7  T
   3  -5198.6725125  0.411183E-08  0.323E-05    4.10      49.8  T
     SCC iter.                  ...       10 min, 36.341 sec
     gradient                   ...        5 min, 12.247 sec
 * total energy  : -5104.1006156 Eh     change    :  -0.1464303E-04 Eh
   gradient norm :     0.0017064 Eh/a0  converged?    E=F G=F D=F
   time step     :     0.5894869 fs     power     :   0.3212119E-09
   step length   :     0.0113923 a0     speed     :   0.4674684E-03

........................................................................
.............................. CYCLE   57 ..............................
........................................................................

 iter      E             dE          RMSdq      gap      omega  full diag
   1  -5198.6720415 -0.519867E+04  0.335E-04    4.10       0.0  T
   2  -5198.6720416 -0.286400E-08  0.199E-04    4.10       8.1  T
   3  -5198.6720415  0.933687E-08  0.437E-05    4.10      36.8  T
     SCC iter.                  ...       10 min, 37.816 sec
     gradient                   ...        5 min, 12.141 sec
 * total energy  : -5104.1006326 Eh     change    :  -0.1692914E-04 Eh
   gradient norm :     0.0016459 Eh/a0  converged?    E=F G=F D=F
   time step     :     0.6484356 fs     power     :   0.3397958E-09
   step length   :     0.0127806 a0     speed     :   0.4767588E-03

........................................................................
.............................. CYCLE   58 ..............................
........................................................................

 iter      E             dE          RMSdq      gap      omega  full diag
   1  -5198.6718619 -0.519867E+04  0.382E-04    4.10       0.0  T
   2  -5198.6718619 -0.382715E-08  0.231E-04    4.10       7.0  T
   3  -5198.6718618  0.272212E-07  0.689E-05    4.10      23.4  T
     SCC iter.                  ...       10 min, 36.576 sec
     gradient                   ...        5 min, 13.841 sec
 * total energy  : -5104.1006519 Eh     change    :  -0.1932659E-04 Eh
   gradient norm :     0.0014979 Eh/a0  converged?    E=F G=F D=F
   time step     :     0.7132792 fs     power     :   0.3498510E-09
   step length   :     0.0144657 a0     speed     :   0.4905648E-03

........................................................................
.............................. CYCLE   59 ..............................
........................................................................

 iter      E             dE          RMSdq      gap      omega  full diag
   1  -5198.6722226 -0.519867E+04  0.437E-04    4.10       0.0  T
   2  -5198.6722226 -0.565888E-08  0.266E-04    4.10       6.1  T
   3  -5198.6722226  0.398950E-07  0.839E-05    4.10      19.2  T
     SCC iter.                  ...       10 min, 34.923 sec
     gradient                   ...        5 min, 10.480 sec
 * total energy  : -5104.1006732 Eh     change    :  -0.2131614E-04 Eh
   gradient norm :     0.0015221 Eh/a0  converged?    E=F G=F D=F
   time step     :     0.7846071 fs     power     :   0.3475815E-09
   step length   :     0.0165137 a0     speed     :   0.5091037E-03

........................................................................
.............................. CYCLE   60 ..............................
........................................................................

 iter      E             dE          RMSdq      gap      omega  full diag
   1  -5198.6730957 -0.519867E+04  0.465E-04    4.10       0.0  T
   2  -5198.6730957 -0.393538E-08  0.276E-04    4.10       5.8  T
   3  -5198.6730957  0.104674E-07  0.484E-05    4.10      33.2  T
     SCC iter.                  ...       10 min, 38.124 sec
     gradient                   ...        5 min, 10.371 sec
 * total energy  : -5104.1006973 Eh     change    :  -0.2411689E-04 Eh
   gradient norm :     0.0016063 Eh/a0  converged?    E=F G=F D=F
   time step     :     0.8630678 fs     power     :   0.3621414E-09
   step length   :     0.0188037 a0     speed     :   0.5270040E-03

........................................................................
.............................. CYCLE   61 ..............................
........................................................................

 iter      E             dE          RMSdq      gap      omega  full diag
   1  -5198.6740801 -0.519867E+04  0.520E-04    4.10       0.0  T
   2  -5198.6740801 -0.627006E-08  0.309E-04    4.10       5.2  T
   3  -5198.6740801  0.352011E-07  0.815E-05    4.10      19.7  T
     SCC iter.                  ...       10 min, 37.660 sec
     gradient                   ...        5 min, 12.386 sec
 * total energy  : -5104.1007253 Eh     change    :  -0.2800565E-04 Eh
   gradient norm :     0.0014891 Eh/a0  converged?    E=F G=F D=F
   time step     :     0.9493746 fs     power     :   0.3817956E-09
   step length   :     0.0214352 a0     speed     :   0.5461408E-03

........................................................................
.............................. CYCLE   62 ..............................
........................................................................

 iter      E             dE          RMSdq      gap      omega  full diag
   1  -5198.6746029 -0.519867E+04  0.599E-04    4.10       0.0  T
   2  -5198.6746029 -0.867021E-08  0.358E-04    4.10       4.5  T
   3  -5198.6746029  0.408791E-07  0.856E-05    4.10      18.8  T
     SCC iter.                  ...       10 min, 35.749 sec
     gradient                   ...        5 min, 12.031 sec
 * total energy  : -5104.1007569 Eh     change    :  -0.3157992E-04 Eh
   gradient norm :     0.0014794 Eh/a0  converged?    E=F G=F D=F
   time step     :     1.0443120 fs     power     :   0.3857176E-09
   step length   :     0.0246556 a0     speed     :   0.5710855E-03

........................................................................
.............................. CYCLE   63 ..............................
........................................................................

 iter      E             dE          RMSdq      gap      omega  full diag
   1  -5198.6744115 -0.519867E+04  0.649E-04    4.10       0.0  T
   2  -5198.6744115 -0.800264E-08  0.384E-04    4.10       4.2  T
   3  -5198.6744115  0.306054E-07  0.803E-05    4.10      20.0  T
     SCC iter.                  ...       10 min, 34.640 sec
     gradient                   ...        5 min, 11.918 sec
 * total energy  : -5104.1007928 Eh     change    :  -0.3585927E-04 Eh
   gradient norm :     0.0015593 Eh/a0  converged?    E=F G=F D=F
   time step     :     1.1487432 fs     power     :   0.4058888E-09
   step length   :     0.0283473 a0     speed     :   0.5969027E-03

........................................................................
.............................. CYCLE   64 ..............................
........................................................................

 iter      E             dE          RMSdq      gap      omega  full diag
   1  -5198.6739246 -0.519867E+04  0.735E-04    4.10       0.0  T
   2  -5198.6739246 -0.121727E-07  0.439E-04    4.10       3.7  T
   3  -5198.6739246  0.752798E-07  0.116E-04    4.10      13.8  T
     SCC iter.                  ...       10 min, 37.742 sec
     gradient                   ...        5 min, 11.089 sec
 * total energy  : -5104.1008340 Eh     change    :  -0.4124473E-04 Eh
   gradient norm :     0.0014272 Eh/a0  converged?    E=F G=F D=F
   time step     :     1.2500000 fs     power     :   0.4251793E-09
   step length   :     0.0322612 a0     speed     :   0.6242884E-03

........................................................................
.............................. CYCLE   65 ..............................
........................................................................

 iter      E             dE          RMSdq      gap      omega  full diag
   1  -5198.6739843 -0.519867E+04  0.770E-04    4.10       0.0  T
   2  -5198.6739843 -0.152777E-07  0.461E-04    4.10       3.5  T
   3  -5198.6739842  0.745486E-07  0.121E-04    4.10      13.3  T
     SCC iter.                  ...       10 min, 37.482 sec
     gradient                   ...        5 min, 10.938 sec
 * total energy  : -5104.1008760 Eh     change    :  -0.4199439E-04 Eh
   gradient norm :     0.0015570 Eh/a0  converged?    E=F G=F D=F
   time step     :     1.2500000 fs     power     :   0.4299489E-09
   step length   :     0.0338094 a0     speed     :   0.6542490E-03

........................................................................
.............................. CYCLE   66 ..............................
........................................................................

 iter      E             dE          RMSdq      gap      omega  full diag
   1  -5198.6745838 -0.519867E+04  0.808E-04    4.10       0.0  T
   2  -5198.6745838 -0.123991E-07  0.479E-04    4.10       3.4  T
   3  -5198.6745837  0.886530E-07  0.130E-04    4.10      12.4  T
     SCC iter.                  ...       10 min, 35.995 sec
     gradient                   ...        5 min, 10.098 sec
 * total energy  : -5104.1009199 Eh     change    :  -0.4389432E-04 Eh
   gradient norm :     0.0015312 Eh/a0  converged?    E=F G=F D=F
   time step     :     1.2500000 fs     power     :   0.4514906E-09
   step length   :     0.0350655 a0     speed     :   0.6785551E-03

........................................................................
.............................. CYCLE   67 ..............................
........................................................................

 iter      E             dE          RMSdq      gap      omega  full diag
   1  -5198.6749541 -0.519867E+04  0.822E-04    4.10       0.0  T
   2  -5198.6749542 -0.211458E-07  0.488E-04    4.10       3.3  T
   3  -5198.6749541  0.605760E-07  0.123E-04    4.10      13.1  T
     SCC iter.                  ...       10 min, 35.876 sec
     gradient                   ...        5 min, 10.915 sec
 * total energy  : -5104.1009646 Eh     change    :  -0.4467525E-04 Eh
   gradient norm :     0.0016368 Eh/a0  converged?    E=F G=F D=F
   time step     :     1.2500000 fs     power     :   0.4481039E-09
   step length   :     0.0363757 a0     speed     :   0.7039096E-03
 * RMSD in coord.:     0.0057849 a0     energy gain  -0.4745764E-03 Eh

........................................................................
.............................. CYCLE   68 ..............................
........................................................................

 iter      E             dE          RMSdq      gap      omega  full diag
   1  -5198.6750100 -0.519868E+04  0.161E-04    4.10       0.0  T
   2  -5198.6750100 -0.594810E-09  0.943E-05    4.10      17.1  T
   3  -5198.6750100  0.296404E-08  0.261E-05    4.10      61.6  T
     SCC iter.                  ...       10 min, 35.743 sec
     gradient                   ...        5 min, 12.321 sec
 * total energy  : -5104.1009736 Eh     change    :  -0.8977137E-05 Eh
   gradient norm :     0.0015329 Eh/a0  converged?    E=F G=F D=F
   time step     :     0.2500000 fs     power     :   0.4698084E-09
   step length   :     0.0071550 a0     speed     :   0.6922881E-03

........................................................................
.............................. CYCLE   69 ..............................
........................................................................

 iter      E             dE          RMSdq      gap      omega  full diag
   1  -5198.6750506 -0.519868E+04  0.171E-04    4.10       0.0  T
   2  -5198.6750506 -0.223554E-08  0.101E-04    4.10      16.0  T
   3  -5198.6750506  0.265572E-08  0.354E-05    4.10      45.4  T
     SCC iter.                  ...       10 min, 36.281 sec
     gradient                   ...        5 min, 10.671 sec
 * total energy  : -5104.1009826 Eh     change    :  -0.9015100E-05 Eh
   gradient norm :     0.0013484 Eh/a0  converged?    E=F G=F D=F
   time step     :     0.2500000 fs     power     :   0.4676757E-09
   step length   :     0.0071054 a0     speed     :   0.6874827E-03

........................................................................
.............................. CYCLE   70 ..............................
........................................................................

 iter      E             dE          RMSdq      gap      omega  full diag
   1  -5198.6750829 -0.519868E+04  0.173E-04    4.10       0.0  T
   2  -5198.6750829 -0.214550E-08  0.103E-04    4.10      15.6  T
   3  -5198.6750829  0.357977E-08  0.350E-05    4.10      45.9  T
     SCC iter.                  ...       10 min, 34.854 sec
     gradient                   ...        5 min, 11.533 sec
[...]
  3618   6 C     3619   6 C                                       1.3825287
  3619   6 C     3620   6 C                                       1.3839423
  3620   6 C     3621   6 C                                       1.3839016
  3617   6 C     3622   6 C                                       1.3888606
  3621   6 C     3622   6 C                                       1.3836986
  3616   6 C     3623   6 C                                       1.5354148
  3623   6 C     3624   6 C                                       1.5344787
  3625   6 C     3626   6 C                                       1.3878255
  3626   6 C     3627   6 C                                       1.3829758
  3627   6 C     3628   6 C                                       1.3825424
  3628   6 C     3629   6 C                                       1.3846331
  3625   6 C     3630   6 C                                       1.3897464
  3629   6 C     3630   6 C                                       1.3824971
  3624   6 C     3631   6 C                                       1.5393515
  3631   6 C     3632   6 C                                       1.5354813
  3633   6 C     3634   6 C                                       1.3887371
  3634   6 C     3635   6 C                                       1.3823944
  3635   6 C     3636   6 C                                       1.3833431
  3636   6 C     3637   6 C                                       1.3837190
  3633   6 C     3638   6 C                                       1.3898327
  3637   6 C     3638   6 C                                       1.3833574
  3632   6 C     3639   6 C                                       1.5320455
  3639   6 C     3640   6 C                                       1.5368399
  3641   6 C     3642   6 C                                       1.3889925
  3642   6 C     3643   6 C                                       1.3847061
  3643   6 C     3644   6 C                                       1.3837965
  3644   6 C     3645   6 C                                       1.3843451
  3641   6 C     3646   6 C                                       1.3902776
  3645   6 C     3646   6 C                                       1.3817778
  3640   6 C     3647   6 C                                       1.5308374
  3647   6 C     3648   6 C                                       1.5371321
  3649   6 C     3650   6 C                                       1.3892901
  3650   6 C     3651   6 C                                       1.3833451
  3651   6 C     3652   6 C                                       1.3835202
  3652   6 C     3653   6 C                                       1.3836860
  3649   6 C     3654   6 C                                       1.3893041
  3653   6 C     3654   6 C                                       1.3835452
  3648   6 C     3655   6 C                                       1.5327423
  3655   6 C     3656   6 C                                       1.5328184
  3657   6 C     3658   6 C                                       1.3888191
  3658   6 C     3659   6 C                                       1.3833550
  3659   6 C     3660   6 C                                       1.3836666
  3660   6 C     3661   6 C                                       1.3841604
  3657   6 C     3662   6 C                                       1.3893554
  3661   6 C     3662   6 C                                       1.3827738
  3656   6 C     3663   6 C                                       1.5341076
  3663   6 C     3664   6 C                                       1.5306030
  3665   6 C     3666   6 C                                       1.3898267
  3666   6 C     3667   6 C                                       1.3826100
  3667   6 C     3668   6 C                                       1.3840407
  3668   6 C     3669   6 C                                       1.3841641
  3665   6 C     3670   6 C                                       1.3895480
  3669   6 C     3670   6 C                                       1.3846397
  3664   6 C     3671   6 C                                       1.5356889
  3671   6 C     3672   6 C                                       1.5321908
  3673   6 C     3674   6 C                                       1.3893653
  3674   6 C     3675   6 C                                       1.3834689
  3675   6 C     3676   6 C                                       1.3834687
  3676   6 C     3677   6 C                                       1.3837735
  3673   6 C     3678   6 C                                       1.3902279
  3677   6 C     3678   6 C                                       1.3825135
  3672   6 C     3679   6 C                                       1.5367437
  3679   6 C     3680   6 C                                       1.5373860
  3681   6 C     3682   6 C                                       1.3900001
  3682   6 C     3683   6 C                                       1.3829576
  3683   6 C     3684   6 C                                       1.3835586
  3684   6 C     3685   6 C                                       1.3836532
  3681   6 C     3686   6 C                                       1.3896948
  3685   6 C     3686   6 C                                       1.3833735
  3680   6 C     3687   6 C                                       1.5362265
  3687   6 C     3688   6 C                                       1.5368792
  3549   6 C     3689   1 H                                       1.0964909
  3551   6 C     3690   1 H                                       1.0903915
  3551   6 C     3691   1 H                                       1.0917047
  3552   6 C     3692   1 H                                       1.0944747
  3559   6 C     3693   1 H                                       1.0924597
  3559   6 C     3694   1 H                                       1.0923665
  3560   6 C     3695   1 H                                       1.0952235
  3567   6 C     3696   1 H                                       1.0915216
  3567   6 C     3697   1 H                                       1.0919857
  3568   6 C     3698   1 H                                       1.0946518
  3575   6 C     3699   1 H                                       1.0913285
  3576   6 C     3700   1 H                                       1.0955729
  3583   6 C     3701   1 H                                       1.0902450
  3583   6 C     3702   1 H                                       1.0916469
  3584   6 C     3703   1 H                                       1.0948027
  3591   6 C     3704   1 H                                       1.0905214
  3591   6 C     3705   1 H                                       1.0917626
  3592   6 C     3706   1 H                                       1.0952144
  3599   6 C     3707   1 H                                       1.0919177
  3599   6 C     3708   1 H                                       1.0934061
  3600   6 C     3709   1 H                                       1.0939473
  3608   6 C     3710   1 H                                       1.0948969
  3615   6 C     3711   1 H                                       1.0911877
  3615   6 C     3712   1 H                                       1.0903923
  3616   6 C     3713   1 H                                       1.0955106
  3623   6 C     3714   1 H                                       1.0922740
  3623   6 C     3715   1 H                                       1.0913772
  3624   6 C     3716   1 H                                       1.0937051
  3631   6 C     3717   1 H                                       1.0920885
  3631   6 C     3718   1 H                                       1.0924123
  3632   6 C     3719   1 H                                       1.0938492
  3639   6 C     3720   1 H                                       1.0904383
  3639   6 C     3721   1 H                                       1.0911463
  3640   6 C     3722   1 H                                       1.0950850
  3647   6 C     3723   1 H                                       1.0914675
  3647   6 C     3724   1 H                                       1.0929776
  3648   6 C     3725   1 H                                       1.0954197
  3655   6 C     3726   1 H                                       1.0924048
  3655   6 C     3727   1 H                                       1.0931162
  3656   6 C     3728   1 H                                       1.0955460
  3663   6 C     3729   1 H                                       1.0912793
  3663   6 C     3730   1 H                                       1.0914511
  3664   6 C     3731   1 H                                       1.0949711
  3671   6 C     3732   1 H                                       1.0904978
  3671   6 C     3733   1 H                                       1.0912059
  3672   6 C     3734   1 H                                       1.0945392
  3679   6 C     3735   1 H                                       1.0922372
  3679   6 C     3736   1 H                                       1.0931240
  3543   6 C     3737   1 H                                       1.0810784
  3548   6 C     3738   1 H                                       1.0799153
  3547   6 C     3739   1 H                                       1.0807883
  3546   6 C     3740   1 H                                       1.0807329
  3545   6 C     3741   1 H                                       1.0801433
  3554   6 C     3742   1 H                                       1.0796467
  3555   6 C     3743   1 H                                       1.0800262
  3556   6 C     3744   1 H                                       1.0798327
  3557   6 C     3745   1 H                                       1.0799812
  3558   6 C     3746   1 H                                       1.0817211
  3562   6 C     3747   1 H                                       1.0816066
  3563   6 C     3748   1 H                                       1.0807838
  3564   6 C     3749   1 H                                       1.0799195
  3565   6 C     3750   1 H                                       1.0801833
  3566   6 C     3751   1 H                                       1.0792526
  3570   6 C     3752   1 H                                       1.0807097
  3571   6 C     3753   1 H                                       1.0813598
  3572   6 C     3754   1 H                                       1.0803524
  3573   6 C     3755   1 H                                       1.0804087
  3574   6 C     3756   1 H                                       1.0811266
  3575   6 C     3757   1 H                                       1.0923086
  3578   6 C     3758   1 H                                       1.0807635
  3579   6 C     3759   1 H                                       1.0806948
  3580   6 C     3760   1 H                                       1.0802257
  3581   6 C     3761   1 H                                       1.0805021
  3582   6 C     3762   1 H                                       1.0814566
  3586   6 C     3763   1 H                                       1.0806643
  3587   6 C     3764   1 H                                       1.0805050
  3588   6 C     3765   1 H                                       1.0805762
  3589   6 C     3766   1 H                                       1.0809077
  3590   6 C     3767   1 H                                       1.0796221
  3594   6 C     3768   1 H                                       1.0804670
  3595   6 C     3769   1 H                                       1.0808558
  3596   6 C     3770   1 H                                       1.0800992
  3597   6 C     3771   1 H                                       1.0800943
  3598   6 C     3772   1 H                                       1.0812048
  3602   6 C     3773   1 H                                       1.0797028
  3603   6 C     3774   1 H                                       1.0804534
  3604   6 C     3775   1 H                                       1.0800339
  3605   6 C     3776   1 H                                       1.0805636
  3606   6 C     3777   1 H                                       1.0801305
  3607   6 C     3778   1 H                                       1.0927977
  3607   6 C     3779   1 H                                       1.0927806
  3610   6 C     3780   1 H                                       1.0788484
  3611   6 C     3781   1 H                                       1.0801486
  3612   6 C     3782   1 H                                       1.0801869
  3613   6 C     3783   1 H                                       1.0806575
  3614   6 C     3784   1 H                                       1.0813977
  3618   6 C     3785   1 H                                       1.0802229
  3619   6 C     3786   1 H                                       1.0800111
  3620   6 C     3787   1 H                                       1.0801337
  3621   6 C     3788   1 H                                       1.0806476
  3622   6 C     3789   1 H                                       1.0813570
  3626   6 C     3790   1 H                                       1.0795539
  3627   6 C     3791   1 H                                       1.0810191
  3628   6 C     3792   1 H                                       1.0800739
  3629   6 C     3793   1 H                                       1.0804871
  3630   6 C     3794   1 H                                       1.0800136
  3634   6 C     3795   1 H                                       1.0788594
  3635   6 C     3796   1 H                                       1.0801069
  3636   6 C     3797   1 H                                       1.0800817
  3637   6 C     3798   1 H                                       1.0805970
  3638   6 C     3799   1 H                                       1.0816372
  3642   6 C     3800   1 H                                       1.0813450
  3643   6 C     3801   1 H                                       1.0804015
  3644   6 C     3802   1 H                                       1.0800499
  3645   6 C     3803   1 H                                       1.0809131
  3646   6 C     3804   1 H                                       1.0807864
  3650   6 C     3805   1 H                                       1.0811088
  3651   6 C     3806   1 H                                       1.0801751
  3652   6 C     3807   1 H                                       1.0796945
  3653   6 C     3808   1 H                                       1.0815333
  3654   6 C     3809   1 H                                       1.0797670
  3658   6 C     3810   1 H                                       1.0811976
  3659   6 C     3811   1 H                                       1.0803531
  3660   6 C     3812   1 H                                       1.0801076
  3661   6 C     3813   1 H                                       1.0809326
  3662   6 C     3814   1 H                                       1.0798843
  3666   6 C     3815   1 H                                       1.0803115
  3667   6 C     3816   1 H                                       1.0809290
  3668   6 C     3817   1 H                                       1.0801878
  3669   6 C     3818   1 H                                       1.0804808
  3670   6 C     3819   1 H                                       1.0815526
  3674   6 C     3820   1 H                                       1.0811980
  3675   6 C     3821   1 H                                       1.0806043
  3676   6 C     3822   1 H                                       1.0798063
  3677   6 C     3823   1 H                                       1.0802624
  3678   6 C     3824   1 H                                       1.0794987
  3686   6 C     3825   1 H                                       1.0798901
  3685   6 C     3826   1 H                                       1.0806393
  3684   6 C     3827   1 H                                       1.0803751
  3683   6 C     3828   1 H                                       1.0804969
  3682   6 C     3829   1 H                                       1.0796846
  3550   6 C     3830   1 H                                       1.0872430
  3550   6 C     3831   1 H                                       1.0884897
  3550   6 C     3832   1 H                                       1.0869381
  3680   6 C     3833   1 H                                       1.0942402
  3687   6 C     3834   1 H                                       1.0900692
  3687   6 C     3835   1 H                                       1.0914343
  3688   6 C     3836   6 C                                       1.5378121
  3837   6 C     3838   6 C                                       1.3893564
  3838   6 C     3839   6 C                                       1.3838287
  3839   6 C     3840   6 C                                       1.3833724
  3840   6 C     3841   6 C                                       1.3839945
  3837   6 C     3842   6 C                                       1.3908921
  3841   6 C     3842   6 C                                       1.3831328
  3838   6 C     3843   1 H                                       1.0805933
  3839   6 C     3844   1 H                                       1.0810256
  3840   6 C     3845   1 H                                       1.0802041
  3841   6 C     3846   1 H                                       1.0814724
  3842   6 C     3847   1 H                                       1.0808488
  3836   6 C     3848   6 C                                       1.5314014
  3836   6 C     3849   1 H                                       1.0914397
  3836   6 C     3850   1 H                                       1.0923197
  3851   6 C     3852   6 C                                       1.3902371
  3852   6 C     3853   6 C                                       1.3834441
  3853   6 C     3854   6 C                                       1.3858672
  3854   6 C     3855   6 C                                       1.3837261
  3851   6 C     3856   6 C                                       1.3881355
  3855   6 C     3856   6 C                                       1.3844475
  3852   6 C     3857   1 H                                       1.0811671
  3853   6 C     3858   1 H                                       1.0812271
  3854   6 C     3859   1 H                                       1.0805754
  3855   6 C     3860   1 H                                       1.0808225
  3856   6 C     3861   1 H                                       1.0789367
  3688   6 C     3862   1 H                                       1.0962514
  3848   6 C     3863   1 H                                       1.0955070
  3848   6 C     3864   1 H                                       1.0934772

 * 2 distinct bonds (by element types)

   Z      Z             #   av. dist./Å        max./Å        min./Å
   1 H    6 C        1944     1.0850962     1.0973248     1.0775273
   6 C    6 C        1855     1.4192703     1.5404880     1.3809430


optimized geometry written to: xtbopt.xyz


           -------------------------------------------------
          | TOTAL ENERGY            -5104.106455551321 Eh   |
          | GRADIENT NORM               0.000877775024 Eh/α |
          | HOMO-LUMO GAP               4.091920154229 eV   |
           -------------------------------------------------

------------------------------------------------------------------------
 * finished run on 2024/10/08 at 15:16:01.070     
------------------------------------------------------------------------
 total:
 * wall-time:     3 d, 18 h, 30 min, 25.765 sec
 *  cpu-time:    23 d, 19 h, 13 min,  0.464 sec
 * ratio c/w:     6.311 speedup
 SCF:
 * wall-time:     0 d,  0 h, 48 min,  9.405 sec
 *  cpu-time:     0 d,  5 h, 46 min, 13.952 sec
 * ratio c/w:     7.190 speedup
 ANC optimizer:
 * wall-time:     3 d, 17 h, 41 min,  5.138 sec
 *  cpu-time:    23 d, 13 h, 25 min, 13.560 sec
 * ratio c/w:     6.305 speedup

