3864
 energy: -5104.106455551321 gnorm: 0.000877775024 xtb: 6.6.1 (8d0f1dd)
C           33.19512330562318       47.53097763654894       42.68337690742233
C           32.62451150688193       46.40614349730141       42.10323280051016
C           31.80060262206968       46.58307691115489       40.99717883296077
C           31.55282341339803       47.84538972045085       40.49028777546613
C           32.13536683092159       48.95675386705297       41.07400318230614
C           32.96094704150510       48.79488239926732       42.17142953291421
C           32.91786497152151       45.02238306206390       42.63483118091316
C           31.62091298421465       44.25720694530696       42.90710183405540
C           33.83516314279912       44.31239382907251       41.62244634159281
C           34.13227585040764       42.83216168111093       41.90566483916155
C           34.78877236553006       42.20361792646978       40.69944108286614
C           35.93210389107838       42.75068773576239       40.12922497456839
C           36.53415768894534       42.15127290438365       39.03849924750760
C           36.00815107712810       40.99148192182523       38.49858384510496
C           34.86257535764918       40.44404113856705       39.04832413989433
C           34.25807130159968       41.05034683396065       40.13518409761819
C           35.00796389225868       42.63667243226926       43.15191926327181
C           35.02235448505059       41.17605612280819       43.63087863310298
C           33.63508412778832       40.74100504420952       44.03348409654770
C           32.96723176790640       41.35011841767118       45.09047755584668
C           31.70182230896659       40.93520397492667       45.46424254333484
C           31.07749448228937       39.90407942734674       44.78364830585613
C           31.72930816290283       39.29173443187063       43.72769303343004
C           32.99673884951667       39.70760945850189       43.35918622051737
C           36.00665654108606       41.00934470582784       44.79978945961388
C           35.94684005630816       39.61496870559932       45.44208919673493
C           36.48126425223814       38.54379909761884       44.52588624494877
C           37.82961070088780       38.47804541500926       44.19339940453174
C           38.31098860276784       37.45537246937625       43.39581145761055
C           37.45076672387184       36.48978078358077       42.90365012333663
C           36.10413319941281       36.55206843712772       43.21763935277561
C           35.62756929150110       37.56735423004513       44.02743807964914
C           36.69726875310196       39.60526186831946       46.78085609055616
C           36.66101479264329       38.22066097462014       47.44449467093114
C           35.24774031730994       37.73435016351399       47.63592428989227
C           34.32187929668015       38.47358170996269       48.36284776304346
C           33.03140910649422       38.01086712048078       48.54487229626206
C           32.64284450948826       36.80093064333339       47.99689942043047
C           33.55461368851739       36.05801207886262       47.26719924481458
C           34.84641026340762       36.52139083291614       47.09152838754537
C           37.40983480598823       38.24614953010530       48.78280584118234
C           37.63640200400437       36.85036972552386       49.38019020255920
C           38.36062589286264       35.95054257273533       48.41089881395865
C           39.58841846139117       36.31456992550424       47.86957700805395
C           40.25890482520604       35.47289702045899       47.00083946951722
C           39.71577492066310       34.24579110981258       46.66168388997588
C           38.49458188829892       33.87078288932685       47.19460781736306
C           37.82486623863535       34.71740546806531       48.06048804726358
C           38.43926260573267       36.98623492335563       50.68326075657643
C           38.77524706075308       35.64485458383744       51.35084444515050
C           37.68026760427013       35.12904262111076       52.24462595140676
C           37.13386953736013       33.87214920024330       52.01912521737166
C           36.20458368979732       33.33566164570076       52.89225721587965
C           35.81830700062575       34.04969379416558       54.01221610839998
C           36.34457125212969       35.30920324618545       54.23890345634336
C           37.26206413086350       35.84782739416848       53.35728320702479
C           40.07912081210689       35.78366313611490       52.15663504830456
C           41.31133698905262       35.62254148247741       51.24293272620770
C           41.76829054537370       34.18720177911015       51.26771653809961
C           42.32295588792364       33.63553281139586       52.41763990226003
C           42.70380231031411       32.30733419978489       52.45223030276478
C           42.53127016565219       31.50486846734439       51.33651297198530
C           41.96834451138486       32.03965320897760       50.19250988011635
C           41.59099983305166       33.37094238316173       50.15937777471257
C           42.41638343610526       36.60721592908624       51.64191893554231
C           43.71583666841289       36.46254783116004       50.83313942498433
C           44.77558904892733       37.35934875350546       51.42812834797120
C           45.98167926368847       36.83616336167136       51.87533678566911
C           46.93977060174173       37.65367573981217       52.45032605655334
C           46.70692571186799       39.00913646473185       52.59497169385946
C           45.51598463417371       39.54671879713404       52.14078065932001
C           44.56680163566912       38.72869353650371       51.55544443231312
C           43.52360218854143       36.78251020642291       49.34433481949987
C           44.78817957897371       36.45986368832028       48.53576459574535
C           45.06610930918938       34.97609630214406       48.53345054494488
C           44.15237927802705       34.08200175338442       47.98684744806458
C           44.41967579751516       32.72684497103047       47.94901241998721
C           45.60787246818543       32.23756175472639       48.46235475035042
C           46.52315882741046       33.11351045988105       49.01669800325735
C           46.25128285120193       34.46924117267748       49.04982459698951
C           44.66828392331112       36.97401612382976       47.09473418781509
C           46.01589311371684       36.97423399234180       46.35753126251956
C           45.77777502596957       37.14827225068962       44.87795578224492
C           46.17771097114930       36.17473278842778       43.97266427998846
C           45.98039123508080       36.34552446766684       42.61297362094927
C           45.37485286077699       37.49564569520936       42.13786215768052
C           44.96205339337192       38.46950739196686       43.03130745504441
C           45.16217766932049       38.29570525668436       44.38833608727293
C           46.95297458083376       38.08169644113312       46.88450295788732
C           48.20547047752080       37.57401619482085       47.61232245239259
C           48.82360860730016       38.70651397837754       48.39500641385072
C           48.92799293428556       38.63089900711325       49.77711832030302
C           49.53857696969968       39.63978157901251       50.50013412165639
C           50.05516959973532       40.74650717372840       49.85066041870923
C           49.93572766114262       40.84456804928243       48.47506685143559
C           49.32525877905282       39.83471891742458       47.75560505836208
C           49.23195044703817       36.99145727119094       46.63350279669189
C           50.51326382079105       36.52659177795032       47.34813872282525
C           50.33049271548800       35.16704638294493       47.97105129891000
C           50.31482731792239       35.02696426830990       49.35378646135752
C           50.15352886483422       33.78579056334412       49.94342213186288
C           50.01023761560120       32.65914266242904       49.15247227124548
C           50.02163626343662       32.78481456204094       47.77336397421620
C           50.17756220840224       34.02856409652559       47.18885405951617
C           51.70900517849594       36.57380771028637       46.38171461354418
C           52.29770411867823       38.00028184428644       46.31320421015576
C           52.84483761029413       38.26675648083486       44.93360539960329
C           54.02439003761103       37.68976356773280       44.47812198488069
C           54.49857262448698       37.95740691841326       43.20604123893079
C           53.79223206312308       38.79109914576600       42.35582757861410
C           52.60225110900153       39.35035979550896       42.78884730448990
C           52.13615480085854       39.09103860686007       44.06450807219558
C           53.31907079205729       38.19861921737863       47.44174056352391
C           53.63426836691728       39.66797777082406       47.76579930623168
C           54.44822766374142       39.74123038953315       49.03612782245472
C           55.74116489686008       39.23268179722596       49.08391478865887
C           56.51017782105881       39.35334264192867       50.22662090990102
C           56.00068794158287       39.98811063456564       51.34612276977275
C           54.70485259737593       40.47009644002497       51.32161939765426
C           53.93281442201657       40.33611895249410       50.18015690554460
C           54.36853811929380       40.35369864568735       46.60397088459641
C           54.81770186153892       41.78598328215760       46.92314628791642
C           53.63803287626226       42.62124456492310       47.35871931648729
C           52.60196772782302       42.92822159189115       46.48369749382623
C           51.52174856626230       43.68313972120545       46.90447380558972
C           51.44339820343131       44.12228627039492       48.21597142767499
C           52.46039410863278       43.80886910726002       49.09938959882135
C           53.55561625634051       43.08176709823913       48.66723149639490
C           55.50308284072821       42.44752290079035       45.71604503205169
C           56.76634981588210       41.74724489987809       45.18616261943824
C           57.21996726220930       42.45322098819710       43.93077823222819
C           57.24409087743461       41.79156011489439       42.70932097123433
C           57.68052873858315       42.43338990789871       41.56243938458696
C           58.06309498732394       43.76241403114063       41.61398717580715
C           58.02565546052477       44.43733418809639       42.82092901924156
C           57.61771650447394       43.78362196749905       43.96689995500876
C           57.88916860357147       41.70993829792112       46.23065679201892
C           59.11508322219210       40.90023292005653       45.77259162330694
C           58.71022026708626       39.47574310295440       45.49572450503457
C           58.70291338496592       38.98679152365480       44.19552965214806
C           58.28630208517682       37.69519613745755       43.92528236240661
C           57.87226494493260       36.86773599036658       44.95476489766168
C           57.89250746194254       37.33790788532701       46.25671966001958
C           58.31012819223834       38.62967245852975       46.52314217856914
C           60.20996232316730       41.00164026812022       46.84576599892274
C           61.39494611157109       40.04955778932518       46.63020600432841
H           33.45391929713912       45.13308005740191       43.58256106319239
H           33.36897724975774       44.37176727787624       40.63557701879506
H           34.77338426804817       44.86953077616584       41.57284370994994
H           33.18268978089615       42.31661937100827       42.07542826615648
H           36.02903710073296       42.95726007305851       42.93538102953416
H           34.63385928951267       43.26808257091790       43.95757474251670
H           35.35453824809097       40.54140160649732       42.80172326244870
H           37.02005625282081       41.21063855538616       44.44539022244086
H           35.77534486096093       41.75352954047072       45.56404752615309
H           34.89680489937766       39.38514486816936       45.65336075147656
H           36.24648047581824       40.34787283528156       47.44263547050057
H           37.17837464090705       37.51937248680341       46.78082824449523
H           38.37914987369689       38.72658088062362       48.62574324996100
H           36.84862122179084       38.84406181832268       49.50362449531045
H           36.66358009109730       36.40367708442856       49.61194609710130
H           39.37528181505889       37.50127765728652       50.45304379840771
H           37.88045425393804       37.61000227095120       51.38410304528750
H           38.94628802543907       34.89566801853777       50.57074485352205
H           40.09517889052628       36.75527052584172       52.65423649667817
H           40.10390260584204       35.02615742803152       52.94185764045047
H           41.00374319205066       35.85865710820449       50.21982388727699
H           44.05244575868790       35.42214830123553       50.90841748074050
H           42.68805896180189       36.20448776217493       48.95099265751823
H           43.28551795085943       37.84360406908594       49.23007029728446
H           45.62815534467934       36.97418682271881       49.01416990507939
H           43.96667989245560       36.34690134993224       46.54055730306987
H           44.26646746675129       37.98875217932279       47.09764730819916
H           46.48309073672125       35.99735935828834       46.51969252856208
H           47.27716032029250       38.70032614738552       46.04752270937665
H           46.40424105071052       38.73096004870862       47.57031237619159
H           47.91706699039071       36.78519180893485       48.31390867133965
H           48.78825135454491       36.15293223092256       46.09432835831662
H           49.48910867848832       37.75368476148984       45.89582268625177
H           50.72173329341762       37.23189843064058       48.15939278772176
H           52.48331168444400       35.87736617756995       46.71022490498144
H           51.38747796167394       36.26126981116940       45.38608960320794
H           51.48046789215594       38.70932435504312       46.48387778752247
H           52.90873894503667       37.74405591257391       48.34758622306822
H           54.24481529800315       37.67365069652725       47.20148891676118
H           52.68532282186533       40.18925776597676       47.93774868354289
H           55.24134187363396       39.75564417674476       46.33858655156833
H           53.71070138306314       40.37942296113570       45.73601616149091
H           55.52299992716667       41.75075004278586       47.75951166438783
H           54.79013878698530       42.50031877935143       44.88997802807726
H           55.75546250795392       43.47395739460502       45.99123694572890
H           56.50843435133376       40.71808896252354       44.91853612418610
H           58.20648018273030       42.72902486029102       46.46080456415129
H           57.50525550510152       41.26309012616532       47.14947937054496
H           33.82811619401572       47.42116292055790       43.55170928084864
H           33.42737491619209       49.65721323570132       42.62441927505805
H           31.95559805331529       49.94150070941669       40.66980554250267
H           30.90575879692311       47.96231549115272       39.63275798682428
H           31.34482183752504       45.72628953679505       40.52357442429828
H           36.35752272012120       43.65881009348364       40.52997240823413
H           37.42325348921580       42.59019405986242       38.61152470332480
H           36.48527405717122       40.52021687078531       37.65195407235986
H           34.43656715797475       39.54401919346720       38.62856884740120
H           33.35611550315280       40.62397234380018       40.55168014486258
H           33.44343323918784       42.15214483385139       45.63558254916842
H           31.19960539973565       41.41816321904637       46.29041174819074
H           30.08964695172569       39.57923352449048       45.07510451318711
H           31.25050710391834       38.48540672717184       43.19079670621280
H           33.50564172791655       39.21913019502907       42.54007561284485
H           38.52082210792035       39.22289439541664       44.56153690825550
H           39.36386502508834       37.41643272858560       43.16114632332526
H           37.82723086969559       35.69095405242133       42.28110815491381
H           35.42413673374441       35.80260845912272       42.83868392911015
H           34.57892816850786       37.60006704908030       44.28755197944960
H           37.73800272191689       39.89614714234513       46.62003837526814
H           34.60626366456420       39.42498042911292       48.78933319259922
H           32.32825771870937       38.59350033590162       49.12191753575588
H           31.63494396566959       36.43939175350705       48.13831807280125
H           33.25901590848589       35.11337907116970       46.83386131456006
H           35.55571327292439       35.93881773238522       46.52044829778411
H           40.02583680081219       37.26934473274065       48.12266376019959
H           41.21002002777858       35.77529191936257       46.58535267897437
H           40.24117521900346       33.58640534302038       45.98635370140890
H           38.06274968796427       32.91498243621299       46.93559562175122
H           36.87151498167471       34.41985918623102       48.47454196348565
H           37.45268149352332       33.30146882305486       51.15760906455856
H           35.79378358755405       32.35363000348377       52.70593413127039
H           35.11574179128615       33.61808802576149       54.71014888907308
H           36.05118702144804       35.87251320862769       55.11184686916825
H           37.67187840730575       36.82698903686794       53.55384076112966
H           42.45258249586981       34.25217857626764       53.29541733395585
H           43.12942761025168       31.88852597618180       53.35362284025500
H           42.82782574232856       30.46680394755136       51.36508909626791
H           41.81458312321494       31.41649343146348       49.32401287060213
H           41.14283616939289       33.77632489496450       49.26246613974060
H           42.02172008877223       37.61772603713899       51.51944398433881
H           42.64923508819241       36.47813228104862       52.70066844058974
H           46.17476773368718       35.77744398802334       51.76857407745085
H           47.86996782563297       37.22772099819998       52.79043897075049
H           47.44055534432741       39.64775135661922       53.06384023595205
H           45.33286400490005       40.60551125021358       52.25438089892153
H           43.64506672750569       39.16143475290346       51.19310580980927
H           43.21937537345168       34.44214114312010       47.57924878575746
H           43.70044293464144       32.05100965744967       47.51001739302011
H           45.82124476588254       31.17942809499503       48.42611437430234
H           47.45473620328555       32.74807654714941       49.42007224800442
H           46.98147371819896       35.13843824562296       49.48310631509394
H           46.65115830805989       35.27315921831924       44.33654590411878
H           46.30406688157455       35.57943911327293       41.92317447051943
H           45.22949729417611       37.63555753046621       41.07677687648017
H           44.49028081929518       39.37117814017678       42.67003816971133
H           44.84011106275700       39.06578377736118       45.07316887389915
H           48.52732181819148       37.76935934792181       50.29333023788497
H           49.61152858617018       39.55519498973144       51.57384897930826
H           50.54007352600207       41.53415788839516       50.41015593459607
H           50.32346194365669       41.70951680884058       47.95928998233236
H           49.24237858486779       39.93310320116160       46.68345008516177
H           50.43819992259315       35.90323949640353       49.97579835575910
H           50.13897341099081       33.69147382656944       51.02009762875397
H           49.89151805467603       31.68865831795931       49.61196308379778
H           49.90852337369945       31.90910116509842       47.15063159825440
H           50.19024998059197       34.11506963957225       46.11195644178212
H           54.58611903153067       37.02779087354139       45.12069988470636
H           55.42623588836034       37.51106003204137       42.87822160489380
H           54.15905431692061       38.99898554636503       41.36130845675702
H           52.03318750248663       39.99331215145250       42.13332627569006
H           51.21028174979787       39.54555440910835       44.39269735356709
H           56.15016637412585       38.74531416551519       48.21204671198514
H           57.51673576572245       38.95881675425812       50.24751806866602
H           56.61509365058567       40.10394422929424       52.22638961892984
H           54.29643644435513       40.96932172846797       52.18837818742917
H           52.92038435022970       40.71418202391720       50.16808703665035
H           52.62691842400790       42.57133074302807       45.46445846854891
H           50.72979278424638       43.90735601882773       46.20491292115495
H           50.58917746824338       44.69141491422550       48.55116657770071
H           52.39295321941570       44.11683686312072       50.13316690053924
H           54.34881180592370       42.84719493903989       49.36245895136528
H           56.92131520992078       40.76034288332367       42.65974535425638
H           57.73466108735767       41.89417881948248       40.62653299064047
H           58.39789162349209       44.26838464586660       40.72039623764950
H           58.32414201767924       45.47329581074117       42.87976278916881
H           57.61062004518617       44.32512829107849       44.89909417088099
H           58.33249143403833       38.98116109637346       47.54403963963471
H           57.58431202848278       36.69320217379022       47.06843769307020
H           57.54377449936724       35.85998145477257       44.74554302757012
H           58.28941349404651       37.33212127379189       42.90729006613964
H           59.03298940248148       39.62631778888834       43.38940278500728
H           31.81035154080054       43.37673241288581       43.51704854308002
H           30.92331122258848       44.89936975466393       43.44122083494258
H           31.15176120719063       43.93636576144340       41.98048551683969
H           59.49656239745606       41.33619887226779       44.84238631408086
H           60.57525682149640       42.03112021253138       46.86779269470471
H           59.77050544418096       40.79361127555384       47.82368154550363
C           62.41064081677006       40.19366504834112       47.77705653975353
C           62.05777184364146       40.27936290035790       45.29459406709102
C           62.77579090475874       41.44028157828463       45.03274146024884
C           63.39865373902330       41.62832645051136       43.81230059557412
C           63.31392331180636       40.65756375197086       42.82929803609965
C           62.60135590570032       39.49734039156814       43.07804739051864
C           61.98356836144506       39.31005423807857       44.30204406455399
H           62.86974958229751       42.20179830760910       45.79091983091607
H           63.96075735144677       42.53318250531746       43.63102489089050
H           63.80835155206874       40.80215873581131       41.87976122574230
H           62.53254261936042       38.73050337335262       42.31963896929147
H           61.43796547962012       38.39606515337716       44.49075569959643
C           61.99634211195321       39.41725695123708       49.03305643403443
H           63.38279933921969       39.82475581007839       47.44212317893139
H           62.52946099911911       41.24832879102622       48.03565477585617
C           62.95249273007548       39.68688061201886       50.15984161367831
C           62.59361077933445       40.50501529775683       51.22215389151884
C           63.49231385123571       40.78086473730863       52.23858310383131
C           64.76558090626200       40.24103739511091       52.20406927526957
C           65.13343608989398       39.42087644794325       51.15050510314465
C           64.23345117581476       39.14679899939023       50.13772340007710
H           61.59833561262678       40.92536420466605       51.26337342777491
H           63.19111175724533       41.42202113875239       53.05436404324939
H           65.47245480739352       40.45095144641558       52.99300386183619
H           66.12547668076185       38.99423894327649       51.12047912405649
H           64.52416707953013       38.50205040202468       49.32027439555466
H           61.01438606486455       39.02230395780475       46.64009315930287
H           60.98907830109724       39.70979636365800       49.33488018396049
H           61.98527486813190       38.34904423372621       48.80184736826383
C           58.70993517129546       50.98729629342502       33.91076838079880
C           59.60234638336119       52.04797224638551       34.01957324302349
C           59.21220239810614       53.29242691322207       33.54133015384971
C           57.95617460874574       53.47546240098503       32.98908810696214
C           57.07507401371670       52.41239593980747       32.89315701559077
C           57.45782011070806       51.16211605475864       33.34906208387043
C           60.96986266904972       51.79678304056524       34.61113732710865
C           61.91671353361891       51.35601260386316       33.49084034477082
C           61.52152268262815       53.02042808856253       35.35217017639226
C           62.60638387017507       52.69491732843161       36.39518994892588
C           63.38050693235977       53.95395027670745       36.70379622884954
C           64.74773420635542       54.01573871055688       36.46812053293214
C           65.46390642902153       55.16934754373535       36.73665893288138
C           64.82043717752737       56.28437578759750       37.24375394501251
C           63.45682126240442       56.23918064946363       37.47938188055623
C           62.74574064730237       55.08470942417652       37.20754970482353
C           61.98671168342018       52.10126694698218       37.66870472399779
C           63.00645331747998       51.89717354648848       38.79820509088292
C           64.03902217245960       50.85507479564855       38.44578156321432
C           65.38142626255251       51.20475916139279       38.36866633746733
C           66.34305958745877       50.26219562528730       38.05047096166191
C           65.97584226243319       48.95026684026607       37.80592705748806
C           64.64353457498662       48.58617735707760       37.89432915561018
C           63.68573272828451       49.53052055322484       38.21790881724520
C           62.32838927897780       51.50283169388781       40.12023521790344
C           61.34046729029888       52.54036466869474       40.68010884398683
C           60.78424423517964       52.03531937100137       41.98863200513262
C           59.43139259671032       51.73169505199574       42.09130931539502
C           58.89899032199335       51.24642147023271       43.27224943864782
C           59.71854721370771       51.04500796490100       44.36803459922140
C           61.06918995147817       51.34111547138675       44.28159478636200
C           61.59456286581364       51.83565501821299       43.10053601152294
C           61.99951686958572       53.92188345536050       40.80408161271455
C           61.15098065095526       54.96169513825464       41.55014069821220
C           59.69810680627863       54.89695794826547       41.15011696704962
C           59.31254375710394       54.88626266300722       39.81403815007777
C           57.98019078726331       54.77508797238261       39.46057814895357
C           57.00335090691034       54.71214313868636       40.43965326554404
C           57.37205478054135       54.74623572277957       41.77220682675676
C           58.70849241408138       54.82975109347731       42.12052590905713
C           61.66462445517204       56.39218006691255       41.29796490066991
C           63.15845217237858       56.61617846356511       41.57721699835680
C           63.58359215840952       57.99509304417275       41.13325068114170
C           64.69865233699922       58.14189468462143       40.31703519045642
C           65.13364491349793       59.39478993795829       39.92439415183802
C           64.45463085680430       60.52639329184712       40.34137906673457
C           63.34205219356814       60.39228462850274       41.15282074969562
C           62.91305052610205       59.13856275893447       41.54941429920905
C           63.51094951376894       56.42706828257903       43.05879477676664
C           65.02648153048031       56.44833943155737       43.30409355018836
C           65.73106769694783       55.35167647187264       42.54229838725421
C           66.88023731495120       55.63767704716613       41.81571516696276
C           67.54761398932371       54.64579854702115       41.11813580391806
C           67.07193956305235       53.34608711986015       41.13000444353917
C           65.93446587730982       53.04363610368672       41.85841894811362
C           65.28023100915486       54.03615338565719       42.56652232166154
C           65.34875576540745       56.31104953568678       44.80281846636522
C           65.05695066570378       57.60076858695397       45.58427282967406
C           66.20992119070290       58.57327913307377       45.54588641225787
C           66.00126751286123       59.88807061643977       45.14919622514276
C           67.03381019849066       60.80973979281767       45.16671879017759