3536
 energy: -3716.274854138560 gnorm: 0.000923661386 xtb: 6.6.1 (8d0f1dd)
C           50.86386021849878       71.25487811388540       63.75754114874379
C           50.08381721552747       70.88270211875715       65.01723510188687
C           51.04912032746316       70.41679724260713       66.10607427570498
C           49.05495640055036       69.78445814587725       64.72508147974636
C           47.80774683528223       70.26224282320737       63.96997025734765
C           46.80554048105790       70.88241489110574       64.94314666012831
C           47.14840270039706       69.09970043400774       63.21460676292673
C           47.87833567805662       68.70052749298246       61.92568365333285
C           47.54666481872021       69.68336830047964       60.80170608119585
C           47.50816669193567       67.28290244082292       61.46832334775183
C           47.90542835237885       66.13278972659545       62.40236748423165
C           49.41447955673529       66.07583831183240       62.62063807859065
C           47.41301143223394       64.80010900800654       61.81886302137430
C           47.21261494528343       63.70598085588433       62.87397110299865
C           47.05047961223447       62.35431528100942       62.18390859801367
C           46.00385265284762       64.01959676564705       63.77810374648321
C           46.37134575390247       64.25290439006744       65.24935616689518
C           46.72400861982294       62.92733385122374       65.91715438221567
C           45.21298207163004       64.94929333709587       65.97609047226024
C           45.54908073242527       65.48160600549086       67.37636601360730
C           44.25906454201863       65.78422828139665       68.13738240250548
C           46.43975420947106       66.72681174837744       67.28959588682662
C           47.15987505842749       67.09282002449012       68.60149064322988
C           46.52300150711696       68.31568878172129       69.26258963165181
C           48.64500847030511       67.37410651114268       68.33997420530214
C           49.47768060001106       66.12293097042625       68.00212842810853
C           50.06720250422022       65.53291848546159       69.28047158711131
C           50.55436656195319       66.51250542970952       66.98169318976910
C           51.55817797580025       65.43708197622404       66.53453578046225
C           52.40357608693957       66.04857861722327       65.41528389043977
C           50.84333898584550       64.15266923598607       66.09232356331866
C           51.67989627445029       63.12294436537545       65.31452220317135
C           50.80204254487857       61.90490857441815       65.02555509042486
C           52.95504687622431       62.71821267186514       66.06282978044767
C           53.94092121260841       61.83683781544751       65.27711811625423
C           55.12606113584839       61.50402004624770       66.18480476096730
C           54.43306605099707       62.49680479155380       63.97325084727196
C           54.19660469617992       61.64250160915734       62.72200924092721
C           55.12351917227819       60.42801114254276       62.71895864306730
C           54.41641818557137       62.43815965479186       61.42837041130058
C           53.43155015599285       63.58138104645824       61.15525486159430
C           51.98155574194419       63.10668135744424       61.24232214675130
C           53.65632940604635       64.16830479246835       59.75479719895244
C           55.04960681164533       64.72890155766019       59.44481546873459
C           55.48910326933790       65.76748667564547       60.47177615993972
C           55.01744001584796       65.34435824442133       58.03991896461659
C           56.39826936694666       65.60370152352868       57.40585028931785
C           56.54342946942155       67.07364595413695       57.01687299420876
C           56.63462984181543       64.69951565762032       56.18683019179940
C           57.19552146426005       63.31880480529350       56.56203584554445
C           58.71781733062076       63.34736821149976       56.45151539052333
C           56.62866131994545       62.20164286000825       55.68031120611615
C           55.19291167272395       61.79249453446556       56.03329892610871
C           55.16020100302696       60.99030254764850       57.33164603897604
C           54.58071760525086       60.99190080503691       54.87648054245770
C           53.05290583426755       60.84980515092418       54.91138784689853
C           52.62603702426582       59.78877018724675       53.89957644230675
C           52.37172821232819       62.18780354193600       54.60221876405616
C           50.90157886496635       62.27874216813291       55.03090005233048
C           50.24801182500328       63.45618760665293       54.31155885563734
C           50.77244927673345       62.44690158317465       56.55102824267671
C           49.41321675089626       62.03536805161065       57.14115816969731
C           49.29174007714146       62.59439676077371       58.55778387038377
C           49.26800629238135       60.50720109083129       57.12089375384350
C           48.05488082921565       59.90798131239787       57.84910386424134
C           48.08950883352769       58.38965077893589       57.67723880723559
C           46.73710528057291       60.49487398445927       57.33481502518439
C           45.44899977509965       59.89738421664513       57.92503701353530
C           44.25996093736183       60.64702874396185       57.32686035785517
C           45.44167185110602       59.98115361032861       59.45546659592442
C           44.22444405191798       59.36631072237754       60.16172962113486
C           44.25087578738184       59.77711940200320       61.63345043009030
C           44.21409779486999       57.83868214557884       60.03219094173082
C           42.88130874460719       57.15873212501425       60.38281655938178
C           43.11519590857957       55.65957976423217       60.55639272285227
C           41.83843074943102       57.42555168201906       59.29055795320799
C           40.40335256633008       56.99567925768823       59.61168834378275
C           39.53539497399369       57.14343589159454       58.36027579808659
C           39.79289242668371       57.67863639856439       60.85224666234519
C           40.07239133438541       59.16816987834989       61.11830087354729
C           39.56090054288052       59.49486871730284       62.52392247240991
C           39.42705387641858       60.08395461217162       60.07240755380353
C           39.63437756534898       61.59453715352456       60.27167794250992
C           38.73285518804624       62.34728916346864       59.29233632349541
C           41.10612939903277       61.97051111326157       60.06594350758937
C           41.48682074184360       63.41657748293657       60.40687848125491
C           42.93433552616020       63.66990135251525       59.98382024963446
C           41.26571743578438       63.78476692440144       61.88180900411069
C           42.06741634203637       62.96587820206086       62.89097215704872
C           41.76819500596807       63.39835463703000       64.32135662961096
H           50.19773152124338       71.60757896371472       62.97376606474539
H           51.58058475440597       72.04534861179428       63.97120718535989
H           51.40852361887458       70.39139612323912       63.38034583018975
H           40.70973293940842       63.27913885405336       64.54672586876229
H           42.33641175390562       62.79824539587860       65.02885282750326
H           42.03147335122437       64.44367924695445       64.46944630756705
H           41.52430848500292       64.84024299319080       62.00986832510248
H           40.20247580105154       63.69045880350225       62.11674492802092
H           41.73095623910731       61.30769943314377       60.66307864984184
H           41.35462259859916       61.79620519923514       59.01531626016902
H           39.32633355429868       61.86423636368870       61.28447965667888
H           37.69371383465680       62.05238956651134       59.42613077689552
H           38.79658465925942       63.42140554151500       59.44619959137864
H           39.02122778214639       62.12960914567329       58.26635285841285
H           39.82021031631768       59.83233577491951       59.08737318547097
H           38.35267303366604       59.88038933283831       60.05929677286002
H           38.70909923470742       57.53294603776749       60.82023282685978
H           40.15331887859416       57.13223596229025       61.72849238361670
H           40.85382273035792       64.08918413430187       59.81831876896326
H           43.03191183778558       63.58133345079487       58.90387197996547
H           43.25123315909598       64.66951332927631       60.27309692814599
H           43.60573352667902       62.94855285009256       60.44251590886535
H           41.15294625675356       59.32335761835254       61.11001800546705
H           39.85533418030838       60.49418070169640       62.83220300858239
H           38.47473503457287       59.43033703007414       62.55926939923308
H           39.96405215110608       58.79200820262997       63.25099494493227
H           40.41388754251162       55.92280252298548       59.84263022735970
H           38.50683734114213       56.85696251253674       58.57212719884729
H           39.53106229755988       58.16049758620915       57.98145227247399
H           39.91279569092914       56.49824441477447       57.56877407711633
H           41.82880627408188       58.48848447948659       59.04767403128474
H           42.15097029906465       56.89047094040721       58.38985860762745
H           42.51623816358642       57.55331128831171       61.33466758135538
H           43.47180080228774       55.21942848976681       59.62759810231259
H           43.85853313757614       55.47352443375497       61.32805188370055
H           42.19837877411999       55.15315679327524       60.84758956631580
H           44.47098988441901       57.55888634174323       59.00897535421651
H           44.99564271084486       57.43857733729545       60.68291227415190
H           43.31565802196148       59.77641678193752       59.71553537608249
H           43.42259030310915       59.33378472697513       62.18223061317030
H           45.18130088009204       59.45714421954311       62.09857066577648
H           44.17711986979931       60.85753100824937       61.73561793518508
H           46.33187218668558       59.48987530180172       59.85102150480976
H           45.50227625024132       61.03743189688097       59.73115848397901
H           45.37953388107989       58.85199099649869       57.61354278438085
H           44.31897448514920       60.64100488072842       56.24076913006977
H           43.31568026675455       60.19193728484758       57.60965878558925
H           44.25271684567695       61.68101871980848       57.66721077074089
H           46.72886450723981       61.56907108820149       57.53216944606464
H           46.70302281925007       60.35878888726171       56.24959681443277
H           48.15325685728136       60.13601874145148       58.91416262332950
H           47.89145819706594       58.12163679218281       56.64125741536845
H           49.07014073328567       58.00204288046704       57.94567069103001
H           47.34921729776782       57.90292900912264       58.30635693943043
H           49.23460130108689       60.17320976110300       56.08089182337305
H           50.16734675584484       60.07524447048899       57.57103396373778
H           48.62025547835457       62.47492763346538       56.52801464239335
H           48.29537736912607       62.44059167634735       58.96246278135803
H           50.00965925313446       62.11393133557939       59.21774281911606
H           49.48933630494695       63.66506490824067       58.56075446795467
H           51.54996298095378       61.86707808011656       57.05344233735477
H           50.95797175907747       63.49792293112191       56.79017252509276
H           50.38837935077611       61.36246974330358       54.72630243751142
H           50.82484022229232       64.36465986967336       54.47087571777698
H           50.18944475410176       63.27246979174321       53.24085354294747
H           49.24159738424002       63.62258820469257       54.68157422101014
H           52.91059330805918       63.00280725360103       55.08996104710107
H           52.43724458161031       62.36034870148217       53.52492913279740
H           52.74835476804642       60.51096369326746       55.90629176239882
H           52.95705171263346       60.06596928830511       52.90152758415472
H           53.06129573449432       58.82457319119423       54.15172812435160
H           51.54554181443650       59.67559404198987       53.87974370570424
H           54.84753516590305       61.47271600115150       53.93144584361441
H           55.03108981999991       59.99553175911611       54.87131999391881
H           54.60345028120975       62.70198211403046       56.18389893731271
H           54.14664230491819       60.67454156704443       57.56901349230212
H           55.78381885695423       60.10236450546647       57.24479973213682
H           55.52442395914959       61.58369499332186       58.16675202920553
H           56.66667781569335       62.53620520287603       54.64168111646280
H           57.26845147549931       61.32041259585144       55.76094723479774
H           56.93271348398026       63.10397329680418       57.60101601142609
H           59.14638559695880       62.40838876169750       56.79056506437063
H           59.01783164889431       63.50679933075119       55.41782786322014
H           59.13215071170104       64.15396900198851       57.05417199060285
H           55.70002003249127       64.59564597799529       55.63322198411704
H           57.34431319889315       65.18228750917635       55.51280895289193
H           57.17764327305797       65.38515900828556       58.14409302781791
H           57.53493115818722       67.27200346666363       56.61398830731914
H           55.80612799476425       67.34480770870903       56.26438943734428
H           56.39877382497601       67.70918325241135       57.88676537099282
H           54.44634815137712       64.67804406211597       57.39101540486853
H           54.45906225090486       66.28172091973762       58.09585301100806
H           55.77266765031262       63.90705414319272       59.45053967307334
H           55.64522814349468       65.30993979067510       61.44567531745729
H           56.42293218189949       66.23357317335945       60.16509785636055
H           54.73644593782772       66.54760804360900       60.56976660667956
H           53.43016910767819       63.38987937777472       59.02039483102212
H           52.93085204175482       64.97309064253857       59.60223510434355
H           53.57742056317500       64.37629202436827       61.89362926283435
H           51.70514865351636       62.84863461719592       62.25985994932724
H           51.30476434075096       63.88819700133418       60.90347230666074
H           51.83718626973889       62.23233231184386       60.61111083788573
H           55.43203649657907       62.83993486102811       61.44669296576283
H           54.35601780079290       61.73875754969024       60.58931160787469
H           53.16594291780442       61.27581061039346       62.73835939451160
H           54.94222788306980       59.80462500442720       63.59012199626091
H           54.96410465680331       59.82350485124091       61.82798277451948
H           56.16519326501848       60.74481678242222       62.73210408414891
H           53.93943376722897       63.45858381613407       63.84263081261535
H           55.50307968741398       62.70359394140169       64.05178602635017
H           53.43765002380714       60.89735066370216       65.02936450009196
H           55.84269250178881       60.86977704515735       65.66980393083753
H           55.63367890278157       62.41745428105391       66.49083029349097
H           54.79371812041669       60.98691487673544       67.08214804958970
H           53.49185344515541       63.61588841377131       66.37269398603061
H           52.66615285498347       62.18304218678913       66.97248927052480
H           51.95721703707422       63.57388402275168       64.35849525628907
H           49.90920067321951       62.19870441394805       64.47664868583675
H           51.33392559816633       61.16856540475718       64.42974741921175
H           50.48937753049955       61.42967064869595       65.95364919281333
H           50.43407034609115       63.66041815785233       66.97764007192490
H           49.99661942978015       64.43505143034719       65.46041571211671
H           52.21760168626322       65.20425731532535       67.37761795132522
H           53.25263804296184       65.42177853565435       65.15976054551145
H           51.80215417239150       66.19409977475273       64.52107368643649
H           52.78747532618721       67.01850402204995       65.72704922429924
H           50.04234070698268       66.87880967016355       66.08706075446109
H           51.12082089877243       67.35239533293527       67.39526010029640
H           48.82108686830757       65.37439791294852       67.54914069730509
H           50.77902583023713       66.22519631176033       69.72528143592754
H           49.27936313803043       65.34316298585479       70.00694434176616
H           50.57720580867848       64.59296909100685       69.08530673438206
H           48.70802824238119       68.09210048249204       67.51862627383309
H           49.08075073381818       67.85790831291978       69.21749204160332
H           47.08479769845226       66.25036436163414       69.29817300188817
H           46.65866581305811       69.19606211187819       68.63635836696882
H           45.45718257231802       68.16874848203801       69.41686845273598
H           46.98298676684063       68.51317247457634       70.22927093336311
H           47.19071976400433       66.55866186872368       66.51751511434279
H           45.83069960826767       67.57192839372861       66.95964515996198
H           46.09100347675555       64.70493589947054       67.92607632970333
H           43.70520311767261       66.58125289230716       67.64440782577476
H           43.61974278764559       64.90437864610502       68.17914451690321
H           44.47399129756160       66.09267200697529       69.15755104695262
H           44.86152042870512       65.78934447415678       65.37018834609523
H           44.38588224922309       64.23974119600751       66.05605079799084
H           47.25277455963892       64.90243791541160       65.28391827568043
H           47.51552968837457       62.42027639267903       65.37179650108901
H           47.06564230634870       63.07984060892215       66.93748148525032
H           45.85223516503273       62.27619905682130       65.94129823623099
H           45.49266217609568       64.90643809017411       63.39780850851020
H           45.28631021769809       63.19768390866975       63.73457778472776
H           48.11365189755447       63.65781292012353       63.49354877610950
H           46.20000571007576       62.38072094108281       61.50663809251131
H           47.93981008966988       62.10816653736724       61.60849509529562
H           46.88483987132680       61.56481063685990       62.91300767182167
H           46.46345045509410       64.95320474233246       61.30108165516899
H           48.13524991177901       64.45509420458232       61.07550401661103
H           47.41772510454955       66.28243350738042       63.36965129221016
H           49.76399384963683       66.93221132182963       63.19219839435437
H           49.68680139119632       65.17614341037101       63.16686412045141
H           49.93398802834544       66.06242966940063       61.66516567501165
H           46.42564741702394       67.24863814705965       61.31533594783163
H           47.98012838103771       67.10603647763764       60.49818715220187
H           48.95720105973903       68.74482204653566       62.09915204968522
H           48.10478247288841       69.44131938685869       59.89965834419721
H           46.48506313235748       69.64596641765289       60.56351097191009
H           47.79408435772005       70.70359442933493       61.08565640968333
H           47.09519117498225       68.24850035630088       63.89505954901550
H           46.12191962950462       69.37406187913668       62.95824850644353
H           48.09805922991148       71.03172113596084       63.24857791043999
H           46.42956981666986       70.12614979989949       65.63030409956136
H           47.26886692790144       71.67408325874327       65.52771988619857
H           45.95972353420829       71.30812255126359       64.40692859122319
H           49.55612077937893       69.00086935094863       64.15443122522282
H           48.72980390435046       69.33895128829690       65.66861107858649
H           49.56160833083796       71.77556722141993       65.37987645213187
H           51.79336701606459       71.18315959622470       66.31353328213601
H           50.51627464774909       70.20263109189770       67.03003364146325
H           51.56350020310361       69.51117340734032       65.79072860774708
H           41.82776643198518       61.90697876573198       62.78543727800461
H           43.13370515969275       63.09338374610961       62.70126511472522
C           34.52569726562854       57.87117560367483       52.57978521943717
C           35.57595253583892       58.93122984860932       52.90449884166131
C           35.68407400188182       59.92472943409472       51.74768110922543
C           36.95317415597414       58.31232160587038       53.17201359461740
C           37.04546980236406       57.37044322835060       54.37724471649317
C           36.74696752944462       58.11234311975037       55.68050138736270
C           38.44329444443763       56.74193295568700       54.48011444253571
C           38.84500465015682       55.76213555611231       53.37026510536370
C           37.94805382760527       54.52703536995641       53.38389126084186
C           40.31237769793443       55.33748702791109       53.55152167058553
C           41.33178477505037       56.36628944619214       53.04270417031550
C           41.53016128478510       56.21659692183177       51.53426767622642
C           42.69365540538391       56.22361261937579       53.73592816037752
C           42.73814287436109       56.60890565230481       55.21755502366894
C           42.36108820519439       58.07423862707854       55.42379256661858
C           44.13550861913817       56.38259657663654       55.81241133393981
C           44.69438148435250       54.95418106365166       55.75088192502848
C           43.68758005438576       53.94426078682732       56.29121375877509
C           46.00701002466059       54.92034587464373       56.54924792259094
C           46.85649516836555       53.64305747148271       56.44827738855334
C           48.04361773760122       53.77394159966490       57.40195440603277
C           47.31521181513001       53.40663007020849       55.00504998475429
C           48.29812018739167       52.25129175281101       54.75831313095150
C           48.70283971839224       52.29310731081146       53.28447161167753
C           47.67574852204036       50.89415044586140       55.10180353978299
C           48.64801475367105       49.70205182155691       55.12392814328133
C           47.87215148256254       48.41035462032377       54.86793443868671
C           49.39132054871968       49.63196777149353       56.46287185008311
C           50.53305989810006       48.60453958802049       56.53378014460790
C           50.88807946446378       48.34710149905684       57.99638862038555
C           51.75129309113344       49.09450414295993       55.74398683402538
C           52.95008150899007       48.13793705555252       55.65420400270659
C           54.08085962352060       48.84770305967817       54.91112950662085
C           52.55329079417042       46.83081775027301       54.96107922955570
C           53.66900700904093       45.79943107899219       54.73216579964720
C           53.04825146900129       44.57449429161215       54.06337213822861
C           54.35818155282323       45.44203503692265       56.05537024440180
C           55.31988828456657       44.24374765576203       56.04505763180449
C           55.82640388042385       44.03186242416001       57.47301893528335
C           56.49743743023869       44.42466038302542       55.06863591753071
C           56.77313776251630       43.20325272295964       54.17908368985984
C           57.21478405869049       41.99602503752054       55.00277576749235
C           57.83496275812586       43.54379894327158       53.12322446877209
C           57.81817199991024       42.63682893765980       51.88253695354074
C           59.16358429831485       42.72952732340681       51.16392819947948
C           56.66222567180395       43.01908376289305       50.94863930985986
C           56.45675148578584       42.05745724431280       49.76228770641158
C           56.89709871027750       42.70615411685045       48.44941775205968
C           54.99535341282543       41.60373884921761       49.63354939821893
C           54.54499696137055       40.57348991483352       50.67624745127480
C           55.17701817541806       39.20821300224584       50.40526380115749
C           53.01337951204112       40.43989289165859       50.66289803143401
C           52.27438763253979       41.49412947675673       51.49595670938130
C           52.35633671976349       41.14215678482324       52.98081197795253
C           50.79684781592546       41.58356916206606       51.08898270092011
C           50.50417159170851       42.30310284577702       49.76610914637166
C           50.76294850623230       43.80318809090598       49.89034993206360
C           49.04594244769323       42.04843082258195       49.35133699980836
C           48.77005365700413       42.25118206389278       47.85520291157068
C           47.27000820272249       42.42420391223911       47.61922035993190
C           49.29699824871421       41.06357595098827       47.03825158690503
C           49.63240520926634       41.39317853675967       45.57518386745159
C           49.61993589513008       40.10565983354827       44.75187380400942
C           50.99495684794286       42.09185340122220       45.49917248447284
C           51.40193139025081       42.62755650334311       44.12015507335693
C           52.84445843866385       43.13322903982397       44.19082166872099
C           50.46748113030807       43.74354263142871       43.61447830746728
C           49.55163284029400       43.33333228661596       42.45432137867600
C           50.36667112722944       43.05181781583875       41.19071137867012
C           48.53598639070502       44.43946400506655       42.13205710652767
C           47.43184033142443       44.67928101819417       43.16687393280806
C           46.49600370515067       43.47413014597944       43.27003609402930
C           46.59846795970699       45.91513331353827       42.79410013203578
C           47.33109176162692       47.26317865475344       42.77439652102488
C           48.05748359362391       47.52068479597372       44.09265770539204
C           46.33643663485345       48.40709699731876       42.52334590576609
C           45.69274973634351       48.44513771220763       41.13325561288083
C           46.74219578324686       48.69051303726203       40.04746924801774
C           44.63353023172940       49.55481095231720       41.04918898529058
C           43.41112438349681       49.41434586521475       41.96585491106631
C           42.71508206336384       48.06667119403061       41.77375722785879
C           42.40068803931129       50.53904269486186       41.68818331725682
C           42.86709860442698       51.95697769424644       42.03483733754737
C           43.13611084772084       52.09305633819781       43.53263061588495
C           41.81931489745740       53.00427529529707       41.63018158058160
C           41.47572344202503       53.09523844939780       40.13815766674473
C           42.72824462937071       53.26701273508047       39.27926560290444
C           40.52111612414416       54.26897306730317       39.87660566210280
C           39.14289188986172       54.11309273722311       40.51629229059314
C           38.18646578377244       55.20371548324248       40.04856013153950
H           34.84561470254222       57.26456676233055       51.73458021882543
H           34.35169879836315       57.21534676338208       53.42897211178793
H           33.57948280914712       58.34234435064074       52.32098977961612
H           38.05302000551006       55.16185427346361       38.96941618649372
H           37.21247621572094       55.09077959974690       40.51903020166585
H           38.57854588154718       56.18523007354462       40.30536516044180
H           40.98122585902586       55.19402071170103       40.23322632228690
H           40.38561657581500       54.36743034228921       38.79586095227057
H           40.90392419903335       52.79820563113361       42.18888627936789
H           42.18580653767783       53.98459134600675       41.94650113827273
H           43.79436005879667       52.17361346641756       41.49977678157534
H           42.26130543545106       51.78296467808988       44.09992002436191
H           43.98279820676824       51.48572918931259       43.83950903102101
H           43.35640045812215       53.12669462479400       43.78684291057569
H           42.13634385538816       50.49522957791602       40.62958414505081
H           41.48975347639821       50.33631155912150       42.25879419078422
H           45.12969228621706       50.50306180117946       41.26661414703864
H           44.27414002816305       49.60111894942882       40.01671171546294
H           40.96501775695670       52.17669804430623       39.82813564140505
H           42.45528934465178       53.43642754163650       38.23945410422665
H           43.30868827963295       54.12050799464113       39.62233435591612