3795
 energy: -5103.057287160768 gnorm: 0.000977715712 xtb: 6.6.1 (8d0f1dd)
C          106.54031964947754      113.15347584963273      126.36089828105867
C          106.10421844459675      112.11969985109153      125.35282687482790
C          106.75595661621101      112.63290337023854      127.78434745430890
C          105.56729026793417      111.86834205110853      128.36778376849034
H          107.62238616983389      111.96895667705780      127.79278283950678
H          106.98538223450436      113.48727372286967      128.42446094743923
C          104.25650207651816      112.64952686790808      128.37998453274426
H          105.42322204396731      110.95070259908087      127.79673790113607
H          105.80494033233678      111.59002431803376      129.39712931443108
C          104.20957314176438      113.74536991771269      129.42497164609250
H          104.02719074631473      113.06546497125383      127.40186729099203
H          103.45013583517955      111.96166205980001      128.64853303324048
N          103.49374346963542      114.81417007827184      129.06268296023927
O          105.37583017956645      112.65242980274006      124.38929523195461
O          106.40597233664880      110.94653110680864      125.38663577161124
H          105.08019082269355      111.99649602564298      123.70021153445703
H          105.81979467163023      113.97015295939055      126.34277998535710
H          107.49289666785735      113.53853860614824      125.98163156134522
C          103.18026084346393      115.89115426875271      129.97056132795527
H          103.03546635474021      114.81259587357481      128.14996959738798
C          103.27897404869404      117.25426411837876      129.29260945695611
H          102.16085247723915      115.75531374661345      130.35777742364468
H          103.87548444148207      115.82331657730721      130.81176015767474
C          104.71307936876858      117.67833062723874      128.98260980818301
H          102.70351276743348      117.23333912104317      128.36451466298269
H          102.82372187549390      117.99678539182338      129.95137376338951
C          104.72095950399195      119.06611196821092      128.34593298093984
H          105.29364886531893      117.69652821349202      129.90715088149355
H          105.17401328248405      116.95168449033972      128.31182198168733
C          106.11550594959419      119.66936666176069      128.18978917787157
H          104.22952129206170      119.01633628149952      127.37067516150215
H          104.12610208264485      119.73598897340523      128.97203534949659
C          106.00740215668382      121.07702440692572      127.62057710689551
H          106.60641018867491      119.72225722912174      129.16267214610747
H          106.73237345984398      119.04868011931022      127.53765128610294
N          107.26758884917045      121.78681329493267      127.65456921756068
H          105.66459682086084      121.04966362153526      126.57960513444814
H          105.26054048523341      121.64365455549607      128.19377916882911
C          107.41378484193218      122.92793630427201      126.98526985877704
H          107.98244345063675      121.46683276429646      128.30854057359349
O          104.74036666871095      113.64071788389657      130.52519370380770
C          108.72051121886722      123.65325995303468      127.19227293354517
C          108.66952258001014      124.52288071156129      128.45345206838445
H          109.53167981773274      122.93455118841705      127.28760985770285
H          108.91068368154258      124.28821637001755      126.32735248700074
C          109.88932308527130      125.44360845217719      128.54682307431975
H          107.75733992795215      125.12481370257375      128.44817105471546
H          108.63538221648552      123.86813925515899      129.32631308446383
C          109.80873000429494      126.61375694336779      127.56430127278949
H          109.96481517129624      125.84079920208467      129.56104269194407
H          110.78740213085982      124.86212576411884      128.33760556175383
C          111.03832357501777      127.51078207832117      127.63563077799456
H          109.72900630263429      126.23306664806753      126.54596642466842
H          108.93204040476012      127.22385140342041      127.78844904446260
N          112.15389469799879      126.92916562662066      127.16918495084677
C          113.41378781964355      127.63883468379353      127.06154951204843
H          112.08982240286653      126.01154642524989      126.73914350009547
O          106.52679191019539      123.35975149094909      126.24442477450060
C          114.56400725674558      126.68475376557073      126.75848196911956
H          113.35100225013304      128.37866167813465      126.25366189570961
H          113.57906960496526      128.18745659867733      127.99337179025562
C          115.79093346463458      127.45396932758754      126.27425467143938
H          114.80850200470518      126.08926603442823      127.64005436953188
H          114.24252558312482      126.00566317030680      125.96975237945712
C          116.91304533119980      126.55073246795898      125.75768123986116
H          115.47004010275570      128.11880805624173      125.46976868941536
H          116.17215123091117      128.07375967021380      127.08895996214613
C          116.49438194346742      125.74681026817652      124.51882347738879
H          117.76988316874662      127.17952397187146      125.50506361984591
H          117.23809142395581      125.87132166586090      126.54650908830777
C          117.58883063160233      125.64914250852772      123.46244316787350
N          118.83451852037163      125.15697543962908      124.01063455949362
H          117.25124252415795      124.97453639585726      122.66499925920759
H          117.78688417225725      126.62356721559078      123.00732182007177
C          120.02196743543911      125.46254312017587      123.49331520747407
H          118.77924593935735      124.57472297334195      124.84420830012783
O          110.99944128203893      128.64964307457231      128.06996107405050
C          121.19734856185318      124.85242977747461      124.23481123555659
C          122.49204972207225      124.91545581080813      123.42548410747033
H          121.30913597988561      125.37587418601692      125.18581708396428
H          120.94228029684861      123.81896953007225      124.46733443335916
C          123.51076225096170      123.88610182185049      123.89962032846617
H          122.25778920523038      124.73496422771497      122.37400159365748
H          122.91773141765512      125.91724946378021      123.50326631852737
C          124.76288551805936      123.84146817115595      123.02598612157506
H          123.79639576853032      124.10093662413522      124.93017235959147
H          123.05667973417275      122.89319580750575      123.88015237506544
C          125.61138314773892      122.61590101044587      123.34711912071201
H          124.46740054187609      123.77197599334772      121.97475400705838
H          125.36525586046392      124.74215754267216      123.14371412850333
N          126.90979246625123      122.75453109792220      123.08259965317022
C          127.88428759576315      121.70447001940170      123.31050404950972
H          127.25775046767370      123.59786186134554      122.62035809717882
H          116.20597335422838      124.73569888283954      124.80392963509431
H          115.63319231232288      126.22684220589673      124.05147156277252
O          120.16125134567952      126.16893336438278      122.49190298911543
O          125.12017797038371      121.58518847994516      123.79803544220023
C          129.29733289242600      122.26977772250383      123.22079859037504
H          127.69924583267776      121.26090825101022      124.29413434300525
H          127.75926319794715      120.90615393103425      122.56872586945278
C          130.34566069489219      121.16128797069170      123.30543726568828
H          129.39261605264937      122.79975058717204      122.27279622142485
H          129.45325701247387      122.99767665480142      124.01898358500559
C          131.75422932518279      121.62560512166041      122.92489583646910
H          130.36469853177664      120.76478606653399      124.32304384199688
H          130.04815585023434      120.34596512653513      122.64355295546687
C          131.82614360265472      122.13135923897967      121.48088789596270
H          132.08652967001683      122.40622112556170      123.61079944361477
H          132.43297392036337      120.77757602267451      123.04179792937082
C          133.16911847983238      121.86247387164367      120.80111023062993
H          131.05584486987775      121.62458224224618      120.89955288451935
H          131.62113337311317      123.20195768972141      121.44257064635057
N          133.09372135241671      122.23532933776573      119.40602160950871
H          133.97635811330059      122.44471959503345      121.25187657244119
H          133.42355580149979      120.79784022031633      120.89162481928082
C          134.03628729034315      122.95170433762421      118.77090595104389
H          132.24928977980642      121.97816331948572      118.90447848530223
C          133.63894958867928      123.38088936187999      117.36307646406885
C          134.35259483627146      122.56291608164911      116.28473939507931
H          132.55941032320300      123.29958395976458      117.23615636842068
H          133.93405515753383      124.42634505513649      117.25781099661366
C          133.80896330133578      121.13926182603490      116.17157998171008
H          134.22093386253806      123.06702007352192      115.32379443032134
H          135.42117898827789      122.53768942123489      116.50723965470834
C          134.36558657611627      120.44814270027720      114.91894932985333
H          134.07638326166071      120.57107345871071      117.06483883107350
H          132.71944968326724      121.17410574788983      116.11204698630495
C          133.72417756205738      119.09440147987125      114.70247303477552
H          134.14126864515151      121.06756584946163      114.04863653686596
H          135.44879924137203      120.34619292499114      115.00323087339238
N          134.33864775858734      118.07187279982217      115.31561362648426
C          133.86472187110527      116.70477108206060      115.29441478819462
H          135.13504593215072      118.26501275196604      115.90307270386933
O          135.10909562677944      123.24493271061230      119.26587313887677
C          133.46162594162956      116.23025509615871      116.69096062759188
H          133.00345284241337      116.67730764211247      114.62396434362121
H          134.65480886964329      116.06360560129868      114.88925791689942
C          132.20486607313052      116.94961723680886      117.17242619408820
H          133.28441469618994      115.15467176713783      116.66118979954233
H          134.28698819183674      116.41448602672372      117.38389628590183
C          131.91675056904688      116.71280471306993      118.65378323630122
H          132.32398528412111      118.01936127094193      116.99316110433362
H          131.35760928824109      116.60724859442909      116.57522201072396
C          130.73388958859107      117.55269088140801      119.13824944875755
H          131.70752395333727      115.65363446738606      118.81352794762736
H          132.79924101100377      116.96494198683364      119.24637050994768
C          131.13012484595831      119.01291177054971      119.36023258527163
H          129.93132462962680      117.50472531477574      118.39909776518664
H          130.34480366828106      117.15371801833490      120.07606998311361
N          129.96265754329315      119.85530862481150      119.48026374303276
H          131.73799646011116      119.09003188770330      120.26788492992355
H          131.71129157489455      119.39318505987065      118.51694912952324
O          132.72081398973870      118.94657158462621      114.01743527200510
C          129.82731535048185      120.99468582900028      118.79555892354195
H          129.29527315512667      119.58298037758472      120.20597272853720
C          128.50950714053533      121.71541967558939      119.01061984025922
C          128.50970729959363      123.08646151486866      118.34003716375875
H          127.72022304742093      121.09676595756679      118.57610646523288
H          128.32230535005402      121.79811109473847      120.08168043458090
C          127.12765515754012      123.73324570997519      118.27959903540298
H          129.20579433570111      123.74240376760183      118.86486592305179
H          128.88537001511912      122.96639336437197      117.32194700345502
C          126.60360947730766      124.20719666998970      119.63816711765300
H          127.17452446100839      124.58984885761815      117.60927509916982
H          126.41357032231321      123.02184445372758      117.85635400793140
C          127.59022204968821      125.10530813284286      120.36450123705146
H          125.67741019444354      124.76696211037402      119.48604475171422
H          126.38713909179687      123.35757171350616      120.28827554019783
N          128.08048654074543      126.12058659138238      119.65162989612638
O          130.69461253603646      121.41454357779467      118.03211047422568
C          129.13828530571010      126.97010685376905      120.15309572117282
H          127.76859105039145      126.28083828474146      118.70016848405226
C          129.01183718791074      128.39914587427069      119.64107260255649
H          129.09057167165258      126.94164308162566      121.24534542030135
H          130.10964036746964      126.56014158976704      119.84516110364252
C          127.72090311796428      129.07148767136124      120.10191851785501
H          129.87086181086951      128.96759257997846      120.00228137708538
H          129.04833139141158      128.38932766221748      118.54975214759210
C          127.73050105910103      130.57013398344540      119.80371738480473
H          126.88168004722039      128.58864205013742      119.60058606208776
H          127.59901702213176      128.92347118064251      121.17710959953148
C          126.42147281347178      131.26184995926536      120.18474977782347
H          128.54837723769813      131.02896905516624      120.36292372248516
H          127.92814687258652      130.73275304486964      118.74170004478508
C          125.30693852211803      130.96761723162268      119.18432221035729
H          126.10249977104860      130.92572514319423      121.17347651893540
H          126.57526651561896      132.34141318421459      120.23307061082588
N          124.03931058762100      131.46440983861305      119.66536882089746
H          125.50915953150233      131.44607494074589      118.22298498833516
H          125.23484454171655      129.88622910965196      119.02538339328810
C          123.21274127898981      132.20083811384930      118.92510911270017
H          123.77145001541690      131.15192638292910      120.60088431491127
O          127.90813835022230      124.89998238478519      121.53355216632262
C          121.94078038896431      132.64957772227430      119.61666726990643
C          120.74616816899911      131.89786865237735      119.02390063601396
H          122.00971156558077      132.47027081787957      120.68909285541166
H          121.81676511261786      133.72076794127597      119.44021559236107
C          119.40494962638543      132.45564707910111      119.49416575013326
H          120.80014361769324      131.95535178450717      117.93388821699327
H          120.81449157313462      130.84668962825771      119.30451265479542
C          118.24051414202400      131.60361876908058      118.97255229223229
H          119.38184524539074      132.48748948287985      120.58579263718076
H          119.28639031537811      133.47990483722643      119.13408521372358
C          118.17849920568869      130.27953425354417      119.69950035614677
H          117.29219357619010      132.12493868085613      119.11958891877215
H          118.38380799525437      131.42210433189337      117.90842668340974
N          117.56836577545249      130.33998560114381      120.88446476850645
C          117.45325358146009      129.21842964997350      121.79716105073693
H          117.05836924729319      131.17918884607695      121.11865537014268
O          123.44782155899284      132.49074093979561      117.75228254060349
C          117.04456456372299      129.69312858797647      123.18797251285552
H          116.69344091430882      128.51898397636083      121.42956387525058
H          118.41187627108239      128.69408560023555      121.79738513283388
C          118.00779225017061      130.69298241295522      123.83967375607757
H          116.05625953067748      130.14752894337025      123.10617659495682
H          116.92985870730961      128.82253141699445      123.83108298299915
C          119.02453648918527      130.06167929027990      124.79459247826202
H          118.52861342689684      131.26617051732782      123.07113480801354
H          117.42290747264059      131.40461947942697      124.42540263274584
C          119.96621038824625      129.03734852044056      124.16335164421740
H          119.62199212633429      130.86233846928448      125.23749610914447
H          118.47829720991986      129.57461306768622      125.60495173967921
C          120.83707998118219      129.63711194962988      123.06838807419054
H          120.61382629778880      128.62917084389130      124.94273078970598
H          119.39291703494968      128.20945000741651      123.74897093426060
N          121.69213151175902      128.63406178685972      122.46651923407779
H          120.21378579948578      130.08458481720575      122.28563502181011
H          121.48226774157033      130.42310507267194      123.47168240117730
C          122.85855000464412      128.97818342916304      121.92272616433553
H          121.30774484620427      127.69417284933409      122.38025239158239
O          118.66649487002805      129.23621890689785      119.25868215573350
C          123.63197086684586      127.87595265642601      121.22170914832556
C          122.85773710616051      127.28984035348867      120.03558263429906
H          124.57102495294950      128.31207314639855      120.87591163565436
H          123.86962555751131      127.08652942439076      121.93528357487943
C          122.23244469774259      128.39185785553332      119.17555689676871
H          123.54701822824126      126.69709215914186      119.42891285460259
H          122.07366990616613      126.62301831073954      120.39760403311890
C          121.98167340251726      127.95644049128178      117.73124861832950
H          121.29259740606791      128.70661863063364      119.63124638748775
H          122.89510255967643      129.25801463829586      119.15291827156072
C          121.16672455136523      126.68661930945468      117.63624431076524
H          121.45373598724063      128.75233002960272      117.20323791432808
H          122.92845112861741      127.77188078005618      117.22059385471688
N          119.95982620847325      126.72762850215798      118.19999933217389
O          123.28953303991013      130.12961332206467      121.97500547349551
C          119.06558719588806      125.59136587300141      118.20007838082769
H          119.62569163132383      127.57774271386376      118.63725265448009
C          118.26287855415686      125.52523395929443      119.49345606549861
H          118.38770338641257      125.66512820272300      117.34180441096845
H          119.67134665070756      124.69040914217938      118.07344100740025
C          117.39244395255203      124.26967381513110      119.57151420816712
H          118.94415700407102      125.55141120246250      120.34668095240903
H          117.63352400506807      126.41475766070337      119.55693296079100
C          116.52435528702728      124.05468879583260      118.32859451194416
H          118.03416292527426      123.40075693453151      119.71819387156204
H          116.74461593891429      124.35765461969743      120.44660898524945
C          115.29191989395801      123.19003483103748      118.59692634719669
H          116.17404135496241      125.02237316006767      117.96203053943607
H          117.11619808986048      123.59249324324567      117.53795164693149
C          115.60119886201480      121.81721591858454      119.17992815233819
H          114.63892409271628      123.70675475686134      119.30118048622592
H          114.74936933929722      123.06473862739871      117.65698854682744
N          116.37645559568007      121.00828795515690      118.26702190106984
H          116.15347217679215      121.90461901559442      120.11861351762413
H          114.65970655205430      121.29784176793783      119.40192706491938
C          117.07755678047182      119.94467961679901      118.66824389307359
H          116.35361819988010      121.25393314164884      117.28670062418507
O          121.60002126801137      125.68918011260607      117.06328877710511
C          117.79823349926615      119.20437307052148      117.55846080553061
C          119.29414691404133      119.50775206827613      117.65428084105233
H          117.63575710429012      118.13448577819879      117.70007262347089
H          117.40957124070789      119.50912068111165      116.58973237345013
C          120.14393693443361      118.63870767375180      116.73322967919536
H          119.46388009308770      120.55968907230768      117.41493821083182
H          119.61327342859717      119.34111274145656      118.68602426480287
C          119.96960785489235      118.96411115030941      115.24568829552391
H          121.19344381964510      118.79478063109717      116.99320294194435
H          119.90559886816209      117.58508866727922      116.89432779031662
C          121.01242508983613      118.17113608970952      114.48749981964406
H          118.97335684851097      118.69087775498245      114.90394506013457
H          120.12967967337715      120.02893719063638      115.09120350015125
N          122.22925488085313      118.71388275817378      114.53856303649225
C          123.44706505168577      118.02878910896885      114.17267104858921
H          122.34608166233257      119.61722593071893      114.99359776336377
O          117.17614522862281      119.60900501471821      119.84186180078052
C          124.59349730849607      118.49667121247819      115.06470125746931
H          123.28082099255877      116.95427779645729      114.29069105990246
H          123.68917909694680      118.22221587290628      113.12032767239535
C          124.43282000166921      118.05524736879364      116.51873688076654
H          125.52664746028852      118.10260573684170      114.66413433259220
H          124.63974178221557      119.58639704227377      115.02806621120394
C          125.47300970664082      118.70478616733669      117.43144395868714
H          123.43698758511914      118.32964108537996      116.86887693091742
H          124.52104094274020      116.96813191438872      116.58115067764363
C          125.34503703444346      118.20891357705831      118.87033808289496
H          126.47427322386126      118.47513280909131      117.06028282441059
H          125.34497388300140      119.78884933552482      117.40035729824534
C          126.41377844535843      118.78552030439137      119.79231910138742
H          124.35864537239394      118.46440411970904      119.25764645436887
H          125.43823833188944      117.12272674639335      118.88002856249022
N          126.53135599589403      117.99173903360381      120.99793073066907
H          127.38603098586718      118.78004868189042      119.28585844371970
H          126.17584433128711      119.82389754407521      120.05417417922249
C          127.60139128363613      118.04183548551816      121.79102028948405
H          125.79778469391887      117.31478315467851      121.19261468010174
O          120.76504089332987      117.10655370374093      113.92537443856436
C          127.63158890500652      117.00795131696951      122.89632454919693
C          127.95315865684167      115.64524540826152      122.27336599645828
H          128.39974471675464      117.28864340297849      123.61746969809612
H          126.66491041929135      116.96065936066695      123.39595265361685
C          128.09829006187903      114.52105026959947      123.29562956108614
H          127.14906468711072      115.38817959176677      121.58217982036608
H          128.88321730451662      115.72766941074744      121.70380082480911
C          128.41775065752202      113.20912804659909      122.57900472715808
H          128.89641251009115      114.75479119207056      124.00292602800138
H          127.17377469856511      114.40679859617350      123.86097682159772
C          128.38224902175560      111.99813441782516      123.48809887208650
H          127.66607615654036      113.04089312654412      121.80191869117414
H          129.39250566633402      113.26339080440327      122.09729131736999
N          129.35907543904139      111.11304340206105      123.26180704271061
O          128.52343381694016      118.83673032232932      121.60898397419574
C          129.51694310726594      109.90517874041990      124.04039583398809
H          129.99685367292145      111.26455233700614      122.48986629051612
C          130.98503690873355      109.64581288268344      124.37302494612715
H          128.94583774861232      110.05006337247771      124.96146845180972
H          129.08909200565697      109.05039889687619      123.50524880704499
C          131.81465749564376      109.16611543742754      123.18068512375993
H          131.41705165834145      110.56950219113372      124.76377311729640
H          131.03274419979979      108.89449876326029      125.16396737062684
C          131.43005130910731      107.75801889665141      122.72654324082629
H          131.70236317899219      109.86271776215115      122.34791518256993
H          132.86489218533262      109.17178731520042      123.47736484560954
C          132.40503711296580      107.17680515666024      121.70260362647919
H          131.39079683091660      107.09379747515374      123.59325949571380
H          130.43379118376737      107.78145837289463      122.28253087590031
C          133.72405775959882      106.69457792516610      122.32171027574248
H          131.93089472899518      106.32671337724101      121.20239807277656
H          132.62383124078781      107.93238030897525      120.94285284278153
N          134.63726175753223      106.07083647321444      121.37897422391120
H          134.25524269905199      107.53286524148659      122.77861764647670
H          133.51207164847867      105.96156633473886      123.10488818945488
H          134.86863948352524      106.72180725166541      120.63519797731753
H          134.19593393414326      105.26337387177379      120.95020495346485
O          127.50759026074564      111.82240237443408      124.33060850252159
C          125.35554575011484      115.81032755247315      102.00429865330149
C          125.10930042026378      116.46615984078215      100.67856177549967
C          124.41822446607243      114.61488880826599      102.23023160284524
C          124.88205838553183      113.75015255694925      103.40022713596439
H          123.40668250602940      114.97518846366843      102.42162034144087
H          124.40427453382551      114.00592520822464      101.32423238374675
C          124.70716907974511      114.43241410464239      104.76110278005083
H          124.31751733147983      112.81631293066404      103.40211387432444
H          125.93547495186780      113.49658262175679      103.25793750894466
C          125.44000078862250      113.61239189230633      105.80441774513973
H          125.12653173682068      115.43605563679208      104.74164991910939
H          123.64731988838547      114.49109094013396      105.01200891305849
N          126.61346309034313      114.13430224199149      106.17891508546121
O          125.34998130351720      115.65416083663241       99.64799601913553
O          124.73772751663493      117.60469740326432      100.51520596254872
H          125.18124459042110      116.10073757936384       98.80356644196331
H          125.23467484796527      116.54939208032386      102.79468331199450
H          126.38661710509835      115.45036244912191      102.00788529331018
C          127.46868339758959      113.51610443791917      107.16261248998444
H          126.91082819966729      115.03486463330157      105.81350722608863
C          127.78623481602648      114.49889424487873      108.28530261235542
H          126.94648686460137      112.63531849579665      107.54355200547265
H          128.40051077363205      113.18846144834096      106.68389304160631
C          128.78544400006419      113.93652540249066      109.29237460814443
H          128.19939062618056      115.40093908621552      107.83143518984073
H          126.86225557052721      114.78301458890920      108.79149794870702
C          129.30791561967976      115.03615354748190      110.21295383645338
H          128.31010919861086      113.14899724444460      109.88127139011455
H          129.62497302504971      113.48207791104348      108.75971525738449
C          130.21997991816937      114.50228764581384      111.31214686208048
H          129.87403375096295      115.75441274653089      109.61562075232354
H          128.46394259327261      115.56545676479686      110.65800795809426
C          130.78519584463169      115.63603753666469      112.17332595617552
H          129.67019171044589      113.80703423816216      111.94876145751442
H          131.05516945556002      113.95744249169503      110.86683731122889
N          129.75906505961004      116.38566168686445      112.86083163353507
H          131.44538861763272      115.21674204879038      112.93787143004820
H          131.35583453959305      116.32941166320926      111.55076514110952