3864
 energy: -5104.231161742846 gnorm: 0.000792099545 xtb: 6.6.1 (8d0f1dd)
C           49.20717869946439       43.46304037052841       62.40817232942087
C           49.50923767737729       42.75316912185140       61.25283931048211
C           49.66453580935406       43.46181412041941       60.06787871350311
C           49.53267308852335       44.83963564289444       60.03875584440907
C           49.22064076047072       45.53148435552696       61.19718075623793
C           49.05114720834899       44.83652651522256       62.38275674741328
C           49.66510506424456       41.25357398715510       61.27856991653378
C           50.70338870860720       40.81804631163003       62.31519734891579
C           48.32395631568366       40.55819845051754       61.55274797371946
C           47.25775358788280       40.84855602076811       60.48879887878487
C           47.75234354902280       40.58082910441476       59.08811121828715
C           48.49095201980101       39.44715121866285       58.77128920368089
C           48.97780605729546       39.25147169437720       57.48972172261973
C           48.69214812992680       40.16579496138583       56.49027559118378
C           47.91976261633653       41.27596638377963       56.78378214093629
C           47.46661401744468       41.48775628313235       58.07376112553331
C           45.98576759031709       40.02001988149222       60.74022495908318
C           45.14041332144000       40.45416285395042       61.95516971327896
C           44.28779538132123       39.26972602200107       62.34326716470999
C           44.70094448156777       38.41891033559877       63.36065268021094
C           43.96243981437050       37.29685783839670       63.69144942399521
C           42.79875374421378       37.00266040240610       63.00315230253904
C           42.37581505302688       37.84549474735550       61.99032318189515
C           43.11217780525739       38.96993447705999       61.66616858663875
C           44.27438341248950       41.69473529662544       61.67520074259849
C           44.95001235890597       43.05217732365377       61.96772555954904
C           44.77464150696504       43.98713982083773       60.79598127101333
C           45.87817262287719       44.51455692685196       60.13835025054605
C           45.72257810062398       45.32474298469857       59.02629404182242
C           44.45530107328299       45.62943143692053       58.56361957409920
C           43.34605374222797       45.13756426881225       59.23139048471596
C           43.50563746173471       44.31900586546241       60.33502097712388
C           44.39730079469258       43.70730547749459       63.24395474910678
C           44.84158959235351       43.00432366755698       64.53792444789717
C           44.00819390300244       43.47740112457198       65.70346572621094
C           44.14705621288832       44.75818449968764       66.22921920800636
C           43.43736800326230       45.14177786109889       67.35209931442559
C           42.55794589521573       44.26100247670765       67.95925742847533
C           42.38064522519399       42.99774143244112       67.42200957217334
C           43.10233047320740       42.61236701593435       66.30549795768636
C           46.33267113517592       43.25296065785588       64.80091513593345
C           46.81572382006399       42.71723396780447       66.15791275351191
C           46.93931084163138       41.21639502703908       66.14085251372244
C           46.01379020546803       40.43300793078137       66.81932292869099
C           46.10905164897515       39.05277984807309       66.81280238704251
C           47.13707469495131       38.42936015919852       66.12543970407776
C           48.06713875890402       39.19755337941964       65.44569898580055
C           47.96497024908899       40.57653513321996       65.45566099067337
C           48.13407643657344       43.40383719491888       66.53887047810636
C           48.71932314466950       42.89979532457851       67.86562460399273
C           47.64884269663056       42.79005257142475       68.92137758097236
C           47.46916262531138       41.59934708251878       69.61288710726213
C           46.46338283040871       41.46741632733782       70.55435391557322
C           45.60963100274597       42.52644816124611       70.80921864394111
C           45.78179504600927       43.72092546186254       70.13070024116026
C           46.80021613357696       43.85474593597280       69.20572608567801
C           49.85016393291757       43.81989431459441       68.35592874266980
C           51.02647487566377       43.88043516404760       67.37550837218200
C           51.62340017289569       42.51728565019482       67.12352078179724
C           51.81667161698452       42.06575823782033       65.82366782831225
C           52.38673622354360       40.82942487187810       65.57526760891501
C           52.77764353099193       40.02027237682948       66.62722606328212
C           52.60047975558517       40.46197312030645       67.92726666851445
C           52.03159332888107       41.69933589748177       68.17148434090636
C           52.14588650595041       44.82475105792243       67.84252522680396
C           51.73284335461168       46.29947247042013       68.01327251961597
C           50.77655330734493       46.76583408012132       66.94559877632948
C           51.12960892930011       46.76895517083335       65.60076482021064
C           50.24131371989228       47.21530472900884       64.63836319356373
C           48.97879266330185       47.65492640806696       64.99986856103234
C           48.61673837274206       47.65483803661984       66.33546827173062
C           49.51110269573156       47.22132177629490       67.29783545432235
C           53.00506110612466       47.16344394660428       68.02835146184879
C           52.72180429797534       48.67144607314739       68.02587696194769
C           51.82803810931097       49.09615488051509       69.16115200309630
C           52.09522388518409       48.73290024147740       70.47590212576476
C           51.26044309855865       49.13093797538031       71.50479584033693
C           50.14788788320484       49.91138677269615       71.23863193182305
C           49.88168254557466       50.29488982602085       69.93615155658517
C           50.71416332017896       49.88687155112495       68.90958436386627
C           54.04783899448901       49.44686282972037       68.06295740724605
C           53.90454162371623       50.94056737662216       67.72427266302275
C           55.19497978083232       51.63742895301096       68.07750366111338
C           56.35176886563772       51.44482574039300       67.32999164999980
C           57.52688556794632       52.09328107834455       67.66157760298447
C           57.57026914000918       52.93887212582651       68.75689464114322
C           56.42988595242160       53.12705436628980       69.51814092737114
C           55.25360366743372       52.48180794229076       69.17813339134247
C           53.52768189659031       51.15537483339634       66.25041290095683
C           53.65586857698746       52.62140843809897       65.81243635351301
C           52.82131350227810       53.52624986127631       66.68060150896622
C           53.42344513090543       54.55991832017800       67.38722047828408
C           52.67846255700535       55.38513802955803       68.21062380532345
C           51.31560148998746       55.18388553581243       68.34611384743812
C           50.70231162549111       54.16068091271455       67.64416389433323
C           51.45013323165865       53.34478096877730       66.81421986721578
C           53.29810395846778       52.77182392243468       64.32629210824081
C           53.66596377893778       54.15510784161915       63.77691825098980
C           55.08920834729238       54.53178128857667       64.11173824122241
C           56.15224736223379       53.68764468304668       63.81091375159936
C           57.45220484769664       54.04675063283299       64.11196044433736
C           57.71747314942048       55.26991865844413       64.70297742486643
C           56.67114946601608       56.12811325135659       64.99214378137509
C           55.36991614897253       55.75736898106603       64.70130811824562
C           53.52694343987542       54.24126219717352       62.24782219977500
C           52.10567626577039       54.08725035740644       61.68748853505686
C           52.18387838100466       54.02346280011550       60.18161394341036
C           51.74237924519448       52.91157662888732       59.47898307297556
C           51.80986206434977       52.87350797915160       58.09681816093278
C           52.33200849886636       53.94519056923104       57.39691233952798
C           52.78620745438834       55.05396557023858       58.08883857814241
C           52.70032602001897       55.09803426971060       59.46643977910475
C           51.17391471748520       55.23554300749877       62.12584773332469
C           49.92514279884656       54.74595150974975       62.87339606618693
C           49.22407286065373       55.92364410305473       63.50105092681949
C           48.64738835351052       56.92094445925909       62.72304429811156
C           48.02780465705960       58.01025928151126       63.30780346854031
C           47.97053681415120       58.11836944317585       64.68758552984234
C           48.54412285021869       57.13403898579948       65.47345714620883
C           49.16944045810833       56.04972771085401       64.88322271820377
C           48.99791824747907       53.95582900029063       61.93776738043610
C           47.69888966839633       53.52813544533845       62.63115636915929
C           47.95652499967006       52.89916441313031       63.97716942939521
C           48.79275091038237       51.79424337675660       64.10315890175320
C           48.96520787198314       51.17130899879458       65.32506716655898
C           48.30815527866948       51.65054693633321       66.44638879901707
C           47.49363999927657       52.76371734640862       66.33768644944512
C           47.31438560261384       53.37675451151782       65.11048327486324
C           46.88996351999502       52.49891755202184       61.82332833685396
C           46.56440547565145       52.84797266941785       60.36678880644136
C           45.91254130104786       51.64935007880413       59.71787093971452
C           44.73951457658159       51.10567277218870       60.22839617092460
C           44.14366330296113       50.01250532953983       59.62782535332522
C           44.69973647631330       49.45368830474735       58.48960608074687
C           45.87096535366495       49.97949035259049       57.97414313928675
C           46.47451890573878       51.06048426528500       58.59342664400693
C           45.66114569594408       54.07974149111634       60.21003033785791
C           45.69080584117384       54.57644114806172       58.75705695185646
C           47.04632152298490       55.17333965647990       58.46618212307873
C           47.89832462852109       54.58086334232735       57.54422800085096
C           49.15220190963376       55.10196389495511       57.28200139350198
C           49.58120929545170       56.23125798274383       57.95329682460340
C           48.74569672433489       56.83028196569619       58.87922055778890
C           47.48747139604045       56.31231298074295       59.12956008379615
C           44.57756145413191       55.58520545330640       58.42810013476076
C           43.22233217280073       54.92411893856298       58.11442375327679
H           50.02027274606142       40.92890960614383       60.29633877043458
H           48.49937845808724       39.48185075870229       61.61884130933536
H           47.94863527192422       40.87683104541226       62.52690758796913
H           46.99488126540778       41.90764179813886       60.53571593376972
H           45.35219402186357       40.06250352813473       59.85021457275671
H           46.27540445423891       38.97386970954260       60.87726058278301
H           45.81111382815433       40.66204883074786       62.79379860955586
H           43.96366428539349       41.67271073853383       60.62820519925059
H           43.36363498335153       41.62294579903995       62.27479458239021
H           46.02190311980212       42.90187363077334       62.11056611736208
H           43.30535469338775       43.71149975864385       63.19837997421046
H           44.67598853067567       41.92729153459381       64.42865601427370
H           46.91696983828967       42.78802089087363       64.00773677511197
H           46.52447067842113       44.32694676069700       64.76316020685215
H           46.06883753119190       42.98026163550193       66.91287404992879
H           48.86654442719736       43.24428247533663       65.74832808381150
H           47.95530599014542       44.47915658554881       66.60786025319571
H           49.13575590396605       41.89857164995416       67.70381593165277
H           49.44799500960868       44.82368603065338       68.49117849468398
H           50.19262593824904       43.46751633811114       69.33146436951067
H           50.65564316385291       44.27246244261446       66.42469412788049
H           51.23296446292931       46.41343009844037       68.98107602109680
H           53.60491125497348       46.89291742422409       68.89919116460138
H           53.60168111525731       46.93309994517450       67.14324921626502
H           52.20986473615728       48.90506349169000       67.08837816148299
H           54.48329987423375       49.35681689229130       69.06149298187009
H           54.74729875953675       48.99072598092560       67.35917011143728
H           53.11011139987610       51.36245009957700       68.35029391236095
H           54.17693187713982       50.54722841307613       65.61759781538406
H           52.50207833310245       50.82072576998507       66.09248739470225
H           54.70274298706311       52.91649054581627       65.93566458878342
H           53.82883477127771       52.00515350234643       63.75981836515294
H           52.22766514453063       52.60860832778418       64.19481410071404
H           53.00115587807764       54.89086220777181       64.24274129469840
H           53.92225931220214       55.20979993074612       61.93687305816849
H           54.16100813267302       53.47409371535609       61.79662117785138
H           51.70453435233766       53.13696665615370       62.04848466666778
H           51.71574962885060       55.92920774724066       62.77292009107094
H           50.85615017376782       55.80355734544489       61.24907616072551
H           50.24928541943831       54.08641594129411       63.68621096759603
H           48.75678480434615       54.57167306954248       61.07002818619929
H           49.52773832896360       53.07507156958825       61.57342876740376
H           47.08917583152474       54.42278357717144       62.79429466291062
H           47.45520716781496       51.56355998295236       61.80919585548060
H           45.96393379549495       52.31182195720145       62.36968957497611
H           47.50745080970363       53.05113684702221       59.84880038418088
H           44.63915284541081       53.82698819382821       60.49324201209651
H           46.00815379838973       54.87809647329032       60.86828810164702
H           49.09132240910233       42.93823659531585       63.34446529588822
H           48.79869332601667       45.36199484992981       63.29189582060808
H           49.10516268155917       46.60462955121644       61.17770567965407
H           49.67006071172329       45.36774105669410       59.10513579932718
H           49.88540416946641       42.92905848532570       59.15492963334367
H           48.70307306938254       38.71667532152566       59.53755591035657
H           49.58787615126179       38.38676190274092       57.26524938110083
H           49.06848595537424       40.00647481718017       55.49118215381134
H           47.67331103184871       41.98311560795605       56.00575310280990
H           46.88697540907479       42.37181785879152       58.30217641878183
H           45.60855967297162       38.63850188894754       63.90625896021642
H           44.29751130635418       36.64955994215408       64.48995869845415
H           42.22362467549941       36.12291557600202       63.25459008835935
H           41.46604473242083       37.61908886459575       61.45117637950354
H           42.76704640123557       39.62521236246906       60.88188448087032
H           46.87285072079877       44.28795658142849       60.49410073211390
H           46.59582093417391       45.71064188826016       58.52032359104025
H           44.33086187202451       46.23953465636667       57.68126508989937
H           42.35303635402472       45.38052433793518       58.88157552446550
H           42.63585934158380       43.92365658437861       60.83867587866607
H           44.73415136237400       44.74610029943346       63.27947781833375
H           44.82546127363158       45.46108806699351       65.76984356017209
H           43.57556386158996       46.12979110148923       67.76832029178789
H           42.01101264898455       44.55864183130906       68.84277347792488
H           41.68658122107205       42.30639031549413       67.88037246540283
H           42.97009709075265       41.61647903066346       65.90281703500136
H           45.21448088441056       40.91327560067096       67.36727497300231
H           45.37961314994192       38.46075561229308       67.34793798583800
H           47.21345733764631       37.35107889166559       66.12161938417390
H           48.87535362749319       38.72190109038597       64.90835319016799
H           48.71035145758124       41.15790871449074       64.93477918809243
H           48.11753687811784       40.75930278924422       69.40230826555441
H           46.33850538486652       40.53166781750269       71.08115711698154
H           44.81247453936341       42.42044619805257       71.53127092844272
H           45.11819296800086       44.55220818298678       70.31887901661204
H           46.91892778088108       44.79599705119018       68.69000026880971
H           51.52138693732407       42.69377798090398       64.99413312697401
H           52.52210383420246       40.49009864840874       64.55857756168081
H           53.22258030230891       39.05455733176315       66.43549512870732
H           52.90888206049349       39.83968283920005       68.75623130215655
H           51.90584032212146       42.02756640922650       69.19324623914068
H           52.55684688289771       44.46779268397769       68.78942471396162
H           52.94762035913273       44.76701211656242       67.10165292536161
H           52.10690691977253       46.42076314308711       65.30047232564439
H           50.53449058544353       47.21604341117290       63.59925332287462
H           48.27709894857385       48.00021270810451       64.25366132913778
H           47.63414776865618       47.99982018654256       66.62449496750436
H           49.22520487589210       47.24476206514779       68.34155758748685
H           52.96208674630340       48.12987765088693       70.70464064456900
H           51.47876743996977       48.83243601032217       72.52079036623998
H           49.49560633028341       50.21819035273203       72.04402360774877
H           49.02457784819156       50.91795112104933       69.72150721851419
H           50.49715116521628       50.18610758590491       67.89487038053124
H           56.33680300833672       50.78851012512013       66.47339696137182
H           58.41321289394756       51.94165029030671       67.06282513890916
H           58.48710082734417       53.44826007423537       69.01643179931338
H           56.45467700379593       53.78280806419505       70.37717115294156
H           54.36362113864221       52.64240496876996       69.77168161779711
H           54.48972016836234       54.71675022179191       67.29420664260712
H           53.16488694334308       56.18364855929492       68.75403320712911
H           50.73422218162163       55.82169722112281       68.99630762737137
H           49.63820466295670       53.99632990221735       67.74683189494883
H           50.94921161187255       52.55778131805182       66.26983336850631
H           55.96757051734316       52.73540956407481       63.33754649554986
H           58.26230990821936       53.37088695693177       63.88076263953954
H           58.73298077992956       55.55543678453168       64.93819953369707
H           56.86847254477500       57.08753391868828       65.45067161796169
H           54.55609318711777       56.42814425141069       64.94339057849652
H           51.33937021107904       52.06458577634985       60.01540554962241
H           51.45058741391632       52.00140991251903       57.56919520014463
H           52.37980384140008       53.93380258280674       56.31840011060085
H           53.20787687812564       55.88861811467785       57.54872070880430
H           53.02478614548102       55.98429579771607       59.99380743048177
H           48.68396514199907       56.84605341265086       61.64767232825089
H           47.58840444729915       58.78043863388096       62.68892631903061
H           47.48349749869519       58.96883168542935       65.14520382357618
H           48.50678495158652       57.20715592837139       66.55161613547833
H           49.62056912448988       55.29255791101284       65.50954822414748
H           49.31406668181496       51.41355447328836       63.23699237173724
H           49.60245995857987       50.30064444503904       65.40309049561471
H           48.43647686186201       51.16334942847483       67.40143874042141
H           46.99273349907806       53.16380009713070       67.20735159146184
H           46.66333051613202       54.23685529921448       65.03791122623487
H           44.28215108461410       51.53750543145158       61.10583251824576
H           43.24282837762176       49.59533375807553       60.05495319115614
H           44.22946318380149       48.60627314692604       58.01339786406216
H           46.32074848389378       49.54899868131938       57.09040254824457
H           47.40105154804063       51.45390537454870       58.20202588749881
H           46.84512901603758       56.79530314498223       59.85286914898818
H           49.08516387849320       57.70587679528497       59.41592181030536
H           50.56192000647723       56.63882996103575       57.76345446921626
H           49.79472316716167       54.62881581354006       56.55607245057416
H           47.56996330044494       53.69329196485334       57.02356021354476
H           50.92336917026142       39.75795960665778       62.20557189269326
H           51.63074671884820       41.37244570207433       62.18507945145456
H           50.34304837232524       40.98435994101499       63.32692843673617
H           45.55041079605092       53.70860540982509       58.10288193056971
H           44.46441140956344       56.29783271256822       59.24679452212543
H           44.88776831152138       56.14785721118388       57.54325661854507
C           42.37479665395539       55.84856143326799       57.22462879604952
C           42.48196182819610       54.53668309863484       59.36909307769638
C           42.21618254721757       53.20059534903342       59.64454315667557
C           41.56467366983865       52.82859754657191       60.80723100763375
C           41.15374124088627       53.78946093362332       61.71353411629036
C           41.40261551240242       55.12493163477887       61.44656444321132
C           42.06064779646079       55.49333525874128       60.28702013444764
H           42.54402041971129       52.44002974575147       58.95202009151521
H           41.39025934651882       51.78145887250454       61.01149769726989
H           40.64942427065190       53.50673787592832       62.62672902598619
H           41.08712689531767       55.88158390558645       62.15178202923827
H           42.24935033549717       56.54130379654058       60.10019183466998
C           41.05249923867857       55.19851616734035       56.81925825313991
H           42.18481172782777       56.78685199541352       57.74951105958181
H           42.94336032793823       56.06650396766099       56.31691561238792
C           40.34728740884427       55.86137169232499       55.66633711461665
C           39.53063440254448       55.09142128492780       54.84341994989212
C           38.85158854618249       55.65621503938917       53.78015380315708
C           38.97677049669664       57.01066812549816       53.51918650564924
C           39.78399917431167       57.78955310273488       54.32978127726469
C           40.46229906767726       57.21829764547407       55.39335520335509
H           39.41921656147812       54.03505403939764       55.04502194687927
H           38.22630434687694       55.03701606385662       53.15128364359177
H           38.44297370345072       57.45748531130991       52.69130806226588
H           39.88587724502768       58.84841384731332       54.13338973740253
H           41.08293702037752       57.84754374225049       56.01264429463568
H           43.41712933406934       54.01497835162250       57.53444149987473
H           41.24499311820693       54.16228623979123       56.53342603230758
H           40.37673486256561       55.17631163737062       57.68126095878755
C           65.93053164262702       50.25300534317410       56.90724070509309
C           65.84702171366996       50.71913079687366       58.21461079133115
C           66.08214966332109       49.82662536801955       59.25225447044081
C           66.38746618538612       48.50111462236192       58.99529339480451
C           66.45695292080994       48.04613562275089       57.69005895168285
C           66.22816546210584       48.92807564451149       56.64715361760958
C           65.50187742975318       52.15664887881334       58.51137386547361
C           66.65973141154586       53.07319795122829       58.10655904504480
C           64.21234087750464       52.59156167406324       57.80151594120569
C           63.06812419460628       51.58980033616948       57.99299358088233
C           62.74566818435617       51.37171555335760       59.44858934189999
C           62.37080723485236       52.42987368180985       60.26956501072969
C           62.05807657563267       52.22083353499008       61.60057078423879
C           62.10371154964113       50.94358740020630       62.13433317160382
C           62.47375922857744       49.88151126580695       61.32745364579900
C           62.79248140088190       50.09689045832769       59.99782512772535
C           61.80156853857360       52.01463249569822       57.23148607805459
C           60.96780007241846       50.78174134371687       56.86091037620689
C           61.64183507669313       50.03713922050467       55.73520817041779
C           61.76550671016520       50.60710527196371       54.47321893765765
C           62.39480975376880       49.92712795029595       53.44711290517323
C           62.92911918559229       48.66864810271472       53.67014919840872
C           62.81444092981110       48.09040261730233       54.92185649867960
C           62.16958250572237       48.76904685077164       55.94147144042075
C           59.52826378643709       51.13412636181518       56.46729432328494
C           58.64934806493547       51.69957859327772       57.59938345586024
C           57.25442748826254       51.82941646104183       57.04631518427774
C           56.76948438152552       53.06823057362972       56.65001693413803
C           55.50376017321626       53.19336070665523       56.10430790818201
C           54.70277717488619       52.07458004068300       55.96341872929366
C           55.17302503953401       50.83531589274808       56.35861250280438
C           56.44556505070174       50.71070837358749       56.88203304871976
C           58.70784627162943       50.81920474853158       58.85535467033324
C           57.59089245087115       51.09326790996145       59.87443853901267
C           57.53270412539630       52.56261360005119       60.21054027217748
C           58.60651401149032       53.19477925334459       60.82710128318558
C           58.55913701935680       54.54493729550447       61.12195106443649
C           57.43812755347155       55.29075978761345       60.79837632276315
C           56.36461742891532       54.67208296233650       60.18456128168869
C           56.40913787291166       53.31793119451004       59.90156539364958
C           57.78220534504214       50.26041512515842       61.15484433335564
C           57.32336163451562       48.79761065195059       61.03696933552327
C           58.14361476844660       48.00704844324518       60.04996452697310
C           59.51642509935276       47.84937215308133       60.21072797161951
C           60.25697453495614       47.11861331415412       59.29917143383722
C           59.63790831173308       46.52384655078782       58.21233278797135
C           58.27021595496304       46.66117160973715       58.04943953012978
C           57.53168701180096       47.39442767078325       58.96172354433219
C           57.37091923203508       48.12952435955173       62.42260133397853
C           57.02883849250860       46.63570064360103       62.36210782002284
C           55.64454869908373       46.37701855174116       61.82312817485970
C           55.46144661054630       45.50484108411277       60.75676104548036
C           54.19281004963435       45.18296869226769       60.30956704274009
C           53.07892981956157       45.74042315975068       60.91307765884795
C           53.25058381689232       46.62966288692523       61.95851676296596
C           54.51937832964342       46.94054150421616       62.41211904426627
C           57.17736693721130       45.98557612865077       63.74874450390340
C           56.88292109549940       44.47519774834218       63.73017850305533
C           56.82106250286473       43.93519877557955       65.13676329374793
C           55.60376037847815       43.54484538061156       65.68255304577352
C           55.52810215666593       43.01848626528193       66.95990355328414