3864
 energy: -5104.082624854971 gnorm: 0.000801372120 xtb: 6.6.1 (8d0f1dd)
C           49.23759906683837       43.45541130636390       62.40997148823858
C           49.52913656371549       42.74968220163077       61.24933697981421
C           49.67205977354605       43.46285497921823       60.06532285874280
C           49.53621046163708       44.84048145902268       60.04183226183949
C           49.23217057217257       45.52774559832885       61.20531450931058
C           49.07741313747779       44.82840616974909       62.39042719352479
C           49.68052002411542       41.24954015683614       61.26716282702509
C           50.71524980855907       40.80261775311072       62.30242271094494
C           48.33443043694620       40.56073649695719       61.53558242456165
C           47.26978666399675       40.86834318367023       60.47474679764187
C           47.75641526556977       40.61020664947623       59.06929151086056
C           48.52356266220155       39.49774485358632       58.74548780400214
C           48.99978996248529       39.31321190415490       57.45815457364134
C           48.67431816693738       40.21581654360619       56.46020285861864
C           47.87147047503229       41.30256518997070       56.76070762459390
C           47.42917164117080       41.50459317236832       58.05602314770724
C           45.99185527158797       40.04643547628676       60.71928980272405
C           45.14981807631878       40.47002681937992       61.94008106766979
C           44.30237008799441       39.27838733327920       62.32164526954231
C           44.73516508733407       38.41251598599567       63.31775391685139
C           44.00635519859405       37.28164479889310       63.63918823902679
C           42.83410140558119       36.99475699027363       62.96275829471079
C           42.39205873517307       37.85286791640383       61.97151151434785
C           43.11880472630148       38.98633419231555       61.65583149012947
C           44.28035789440781       41.71101981379518       61.67295963065205
C           44.96141251829712       43.06798476738761       61.95659359161548
C           44.79546618515919       43.99861967063840       60.78052676568135
C           45.90431915174581       44.52912143262832       60.13406390173593
C           45.75888901183379       45.33633501877481       59.01852792810968
C           44.49597068431257       45.63589259500279       58.54081113628865
C           43.38111900340125       45.14428747595008       59.19949928534795
C           43.53062067157891       44.32835053393497       60.30642061114360
C           44.40970388326833       43.73460593739261       63.22777810018343
C           44.85468088935732       43.03826510453645       64.52470676603900
C           44.01632411278755       43.50729190283155       65.68915386604053
C           44.15566222443618       44.78404369338943       66.22416491318526
C           43.44223967156438       45.15983992236523       67.34771571058461
C           42.55976474640960       44.27553350369284       67.94476892088902
C           42.38247820799852       43.01664930185108       67.39759988175516
C           43.10728951993568       42.63846634776632       66.28086249248973
C           46.34411801710224       43.29480786112408       64.78935077588550
C           46.82604559950504       42.75304350222882       66.14413761415592
C           46.95373533393849       41.25226622886770       66.11732363092744
C           46.01752017521669       40.46303400497710       66.77392068154553
C           46.11452365554897       39.08323148954867       66.75570508063559
C           47.15426705229919       38.46717707749910       66.07961983790362
C           48.09589176790237       39.24146089706496       65.42343933833124
C           47.99202863170421       40.62043013867044       65.44419944231771
C           48.13959001388618       43.44291668961208       66.53411118627768
C           48.71680197244844       42.93292164238508       67.86228780202769
C           47.63548014177392       42.82005716948871       68.90751149752919
C           47.44214046476759       41.62238496530091       69.58266546298002
C           46.42035754084825       41.48376545693947       70.50547220057751
C           45.56472312099900       42.54198593585666       70.75610605801036
C           45.75087035534243       43.74332350424179       70.09404258073123
C           46.78592990942418       43.88475078486623       69.18856640728194
C           49.84788674546138       43.84739096722071       68.36069247851101
C           51.02438588956460       43.91216221942369       67.38047698985045
C           51.61920316027493       42.54987875386313       67.11743355964471
C           51.81893459027099       42.11286533241589       65.81351697430352
C           52.38768288671078       40.87781797608177       65.55499446664749
C           52.77012713039488       40.05596250365452       66.60008003713762
C           52.58627544473377       40.48356156887994       67.90370565912542
C           52.01895086063709       41.71934765027480       68.15859239294032
C           52.14531141855029       44.85282285063784       67.85163511641393
C           51.73501484837487       46.32904646165791       68.01695021196093
C           50.77900126226832       46.78955993689711       66.94641901359152
C           51.13389789399616       46.79014972754810       65.60192751790213
C           50.24211255425141       47.22188738404264       64.63598363748889
C           48.97307183621286       47.64658314306529       64.99302598653603
C           48.61006297434633       47.65115118453596       66.32838364500101
C           49.50890249775576       47.23563477906125       67.29436966019551
C           53.00648458795531       47.19383871939101       68.03006857977492
C           52.71942378979265       48.70094409808038       68.01731193522815
C           51.81250379430351       49.13176376562419       69.14052192828986
C           52.04558404654033       48.74902919640979       70.45600253754215
C           51.19691715976522       49.15232425380361       71.47131813234907
C           50.10752655089766       49.95969871047328       71.19137385539852
C           49.87840297944003       50.36658712352496       69.88905064605089
C           50.72234981449530       49.95043779110371       68.87498907829800
C           54.04236111305320       49.48175769739066       68.06180619449110
C           53.89424775108543       50.97165312869042       67.71201336365907
C           55.18050334796929       51.68205578350295       68.05501752666488
C           56.33452695712960       51.49775533033296       67.30150748269318
C           57.50044410235226       52.17151186804633       67.61481846890879
C           57.53693941935868       53.03202015063817       68.69833796429890
C           56.40036744167043       53.20880270687675       69.46752427693878
C           55.23256832017946       52.54002820648435       69.14516725809057
C           53.51429631589847       51.17600179141099       66.23715545057351
C           53.63627861119051       52.64136507914089       65.79599893883385
C           52.79811603679498       53.54552703933975       66.66221206322476
C           53.39713582046315       54.58502181497587       67.36265390284791
C           52.64875927345657       55.40766040011624       68.18535622945299
C           51.28785447889321       55.19802464217005       68.32562969406851
C           50.67797430302486       54.16932652036418       67.62897245760962
C           51.42862630012974       53.35570306342697       66.79904816352428
C           53.28051200788943       52.78963987078502       64.30948041548051
C           53.66264654177758       54.16950072110426       63.76094469777757
C           55.09102926492987       54.52899653529356       64.09576254727403
C           56.14265672241050       53.66873352462228       63.80117893943832
C           57.44619071107339       54.00960489135559       64.10851603667166
C           57.72560636173636       55.23018177838301       64.69796149984563
C           56.69072033445610       56.10446467263250       64.97892477093328
C           55.38563076957717       55.75219990127039       64.68321074706294
C           53.52227418839184       54.26001037709209       62.23279244186689
C           52.09959530514949       54.10784488614757       61.67480122612094
C           52.17636304202369       54.04571016849448       60.16919817694470
C           51.73360716320217       52.93582631023155       59.46381406481542
C           51.80365053592014       52.89955743151140       58.08165394373320
C           52.33163817826583       53.97024709597534       57.38438415209593
C           52.78727951663730       55.07670048577848       58.07917973617950
C           52.69670422438628       55.12002031792048       59.45630129038583
C           51.16809742188544       55.25505719725846       62.11744516189965
C           49.92066294668869       54.76044583784337       62.86316684069053
C           49.20587729013660       55.93050699126000       63.49142034354745
C           48.62999381904925       56.92801997543186       62.71340928587207
C           47.98568102986098       58.00250149679744       63.29943773281185
C           47.90392678551657       58.09392533297676       64.67900849626095
C           48.48026367432439       57.11104203375999       65.46434272723525
C           49.13026135970978       56.04160615710214       64.87371480678009
C           48.99959047362827       53.96515365205995       61.92522128736453
C           47.70311168121745       53.52838989965849       62.61743608358628
C           47.96127463601653       52.89353120177034       63.96110988726089
C           48.80064180280221       51.79046066609972       64.08103028196285
C           48.96703938132269       51.15610604358370       65.29805034991620
C           48.30078021241980       51.62252511546697       66.41929136251342
C           47.48627734748455       52.73632925642836       66.31704281697012
C           47.31280690371121       53.36108924375651       65.09496834154280
C           46.90039772155804       52.49726764250786       61.80617793979488
C           46.57634426327135       52.84649477323754       60.34904978405417
C           45.92616386781166       51.64484335444256       59.70399581306544
C           44.74903563628632       51.10706694500710       60.21191871177072
C           44.15817440429674       50.00677736652586       59.61985912271231
C           44.72294573043827       49.43457892803917       58.49265095005406
C           45.89829160392149       49.95397016901423       57.98006002684075
C           46.49712714078442       51.04227840281573       58.59132410347951
C           45.67409141203992       54.07880019107200       60.19156524081200
C           45.70521373524672       54.57560234973740       58.73858652926757
C           47.06113045407963       55.17173109556063       58.44780577497585
C           47.91221720537509       54.58045253483024       57.52428325516792
C           49.16344035661982       55.10558314237240       57.25663388114062
C           49.59105556940906       56.23686782568780       57.92554689146024
C           48.75782130372463       56.83226688231095       58.85578063597156
C           47.50193788826436       56.31129472558158       59.11046802339024
C           44.59426638390949       55.58719755428415       58.40966181228878
C           43.23575643522685       54.92946921112695       58.10332348879524
H           50.03559201977958       40.93138277750775       60.28309465252982
H           48.50204053413965       39.48318314372160       61.59307050802802
H           47.96213407433213       40.87619649655694       62.51183684295666
H           47.01539828325504       41.92923444795386       60.53077227768907
H           45.35874393263258       40.10483320455611       59.82983078231361
H           46.27599871824541       38.99754339164640       60.84239243384326
H           45.82282758210747       40.67564653851576       62.77752641527906
H           43.95479405126505       41.69101693767594       60.63035576345349
H           43.37897016995974       41.63971475914195       62.28608201137661
H           46.03252217016842       42.91450449260698       62.10328514178715
H           43.31788512168360       43.74182507753451       63.18101261184866
H           44.69701730011342       41.96039246728014       64.41535865139035
H           46.93342937058299       42.83934395347352       63.99357961799045
H           46.53034726585106       44.37069411929813       64.75646558402315
H           46.07593588726935       43.01077411028484       66.89705960905562
H           48.87614993876324       43.29137774863361       65.74503251259527
H           47.95724206422848       44.51799785977484       66.60592327621671
H           49.13199708002912       41.93230025925400       67.69644160810664
H           49.44796523877554       44.85128683375669       68.50257814097031
H           50.18977213859313       43.48678921864698       69.33294439073775
H           50.65431126589484       44.31074547045069       66.43159393318940
H           51.23346063193620       46.44776799892136       68.98275487792637
H           53.60418283347170       46.92944798602686       68.90407390859239
H           53.60729468629228       46.95852341366864       67.14808140083277
H           52.21666952216388       48.92683606393277       67.07230275584379
H           54.46803018486498       49.40041723233411       69.06504920692643
H           54.75055854519285       49.02334821993447       67.36709697822185
H           53.09743946491252       51.39376266929238       68.33399522148831
H           54.16470519439753       50.56670865903991       65.60456857799709
H           52.49004323962831       50.83561470059679       66.07879982549254
H           54.68227652103896       52.93841314668467       65.91776161102612
H           53.80420036870229       52.01675786357016       63.74340135366659
H           52.20868668646195       52.63403617097865       64.17637519324336
H           53.00543607920591       54.91022120135168       64.22841854473761
H           53.91713630172699       55.22874339817049       61.92284884254889
H           54.15409573778500       53.49282243645799       61.77797182580434
H           51.69933640857781       53.15613587318185       62.03332426828022
H           51.71001040974893       55.94499468210376       62.76751493906162
H           50.85086292972642       55.82558755977830       61.24203910100387
H           50.24712231118180       54.10014560834803       63.67417424454226
H           48.75552513309898       54.58008837798552       61.05730877523914
H           49.53383101519751       53.08744965893107       61.55859314259263
H           47.08893811897452       54.41880162006580       62.78241725675178
H           47.46931270142704       51.56374946625080       61.78998167770607
H           45.97377986360330       52.30393996749523       62.34905344052950
H           47.52003354482430       53.04742547318979       59.83084624122949
H           44.65201163402135       53.82589517808250       60.47294379146743
H           46.02276793446901       54.87627337807177       60.84928317121127
H           49.13132319173808       42.92743317269829       63.34522023228211
H           48.83118410008904       45.35054963985753       63.30311354094520
H           49.10982072631698       46.60038723505658       61.18964225521327
H           49.66217055343613       45.37203262491036       59.10854636493471
H           49.88408713723020       42.93437854476868       59.14808072478869
H           48.76643445120092       38.77651748366117       59.51050719529778
H           49.63169553295715       38.46651414187816       57.22757936656667
H           49.04251814336109       40.06591694320317       55.45680942735552
H           47.59099276074706       41.99909345398952       55.98450855964487
H           46.82511796004678       42.37117935647817       58.28877132572293
H           45.65069724600192       38.62843812764245       63.85081770114684
H           44.35701874076230       36.62288016827599       64.42035350626088
H           42.26664042312263       36.10902371720126       63.20644282277276
H           41.47638508797373       37.63354144184152       61.44081974754673
H           42.76125293188078       39.65368132441228       60.88707708624472
H           46.89573921946563       44.30727802134685       60.50098235798037
H           46.63630590022863       45.72436430852033       58.52124303642351
H           44.37995022101291       46.24191184723881       57.65408200372497
H           42.39148560148728       45.38597087841977       58.83914332959050
H           42.65606496069151       43.93402711673001       60.80218893289351
H           44.74981367367307       44.77304079676816       63.25482826438158
H           44.83776877791225       45.48919977710933       65.77235319664968
H           43.58201855633968       46.14451089729827       67.77114990062783
H           42.01138136788675       44.56862861991353       68.82804543304235
H           41.68653688262135       42.32324411523795       67.84756489870328
H           42.97722078542689       41.64695399557156       65.86834002985097
H           45.21096301275256       40.93964423382058       67.31283500635568
H           45.37732384504003       38.48640157260912       67.27277659778701
H           47.23275188574441       37.38974865466968       66.06678647311440
H           48.91524056941283       38.77325499704388       64.89627950114567
H           48.74600073242588       41.20864620678825       64.94269852213866
H           48.09223305368356       40.78433575449257       69.37222999068781
H           46.28487059642967       40.54319148153143       71.01966751054347
H           44.75474239049801       42.43093694470381       71.46219493162880
H           45.08596198313780       44.57413717656124       70.27748556337987
H           46.91584338945329       44.83085362662602       68.68365720815967
H           51.53002997398370       42.75173081240209       64.98892734873326
H           52.52903708439743       40.55133024925489       64.53484910026319
H           53.21320284456916       39.09214070459872       66.39797960117644
H           52.88760379110663       39.85193364680475       68.72706116020713
H           51.88717141527373       42.03822693730748       69.18208160829258
H           52.55038076119587       44.49647267887261       68.80099350091103
H           52.95038618034436       44.79235362447254       67.11418925073050
H           52.11498158046833       46.45003618082828       65.30292513669009
H           50.53710016548351       47.22110251387100       63.59703263949356
H           48.26806801774740       47.97595986471658       64.24247994716528
H           47.62221241599327       47.98398329263654       66.61243672822025
H           49.22237845354543       47.26382253175054       68.33700105277406
H           52.89601504604190       48.12704157488437       70.69448664908417
H           51.38771327694245       48.83701393051776       72.48713295169220
H           49.44486675531538       50.27094265541025       71.98580600428085
H           49.04303377084343       51.01428312187053       69.66322999281928
H           50.53457641193499       50.26564464894346       67.85919703233431
H           56.32376359598282       50.82968426175169       66.45289413043442
H           58.38352733467224       52.02713010903790       67.00940479017520
H           58.44664175727797       53.56083059605474       68.94193094499774
H           56.42054873348628       53.87483331684804       70.31791581487491
H           54.34389016936828       52.69195932355633       69.74164200358997
H           54.46164220359481       54.74592757292356       67.26441637525993
H           53.13179272135154       56.21035985915488       68.72401313534630
H           50.70472590151995       55.83316699876769       68.97555351457086
H           49.61583776197786       53.99702915388377       67.73385691195489
H           50.93273360662673       52.56391329790407       66.25651052917767
H           55.94561102037472       52.71765335952767       63.32940642477735
H           58.24625609642885       53.31981773543583       63.88331980113643
H           58.74373920045488       55.50008463191312       64.93765415288065
H           56.89941846055851       57.06152376958662       65.43537778535578
H           54.57933046069764       56.43288391445035       64.91945732408428
H           51.32711282296603       52.08836942521170       59.99705854705640
H           51.44193654560760       52.02949569745172       57.55191004042378
H           52.38190243720597       53.96013559779523       56.30587121176996
H           53.21373604823354       55.90967939533524       57.54084272606885
H           53.02062300795512       56.00497343056901       59.98502398768947
H           48.68625891356074       56.86373850968395       61.63791085859178
H           47.54661263038719       58.77182216215556       62.67994760475391
H           47.39685877889994       58.93187078818108       65.13558736087276
H           48.42744909638113       57.17246582183152       66.54144505502782
H           49.58408201725116       55.28409391726748       65.49660201103984
H           49.32801921642137       51.41926519161934       63.21390296011321
H           49.60667997020646       50.28657026273502       65.37042403391143
H           48.42315981954329       51.12220519822903       67.36774491531691
H           46.97981194926828       53.12693060879720       67.18665678379516
H           46.66165454878679       54.21990657376102       65.02483894911431
H           44.28547847356376       51.54863974268278       61.08067594767315
H           43.25473637257900       49.59286521344107       60.04492284408602
H           44.25615128308613       48.58183149000381       58.02256701448623
H           46.35522577564784       49.51201312032801       57.10559746214975
H           47.42755666382325       51.43008904927903       58.20300041741346
H           46.86086339137248       56.79179104186908       59.83565018209895
H           49.09758904506159       57.70779160443070       59.39145049232796
H           50.56901593187642       56.64830873328494       57.72987482049815
H           49.80374879390207       54.63394415459288       56.52766816869462
H           47.58456494616661       53.69105615039463       57.00576468799453
H           50.93442290485558       39.74402735064547       62.18133829610229
H           51.64300058495947       41.35851024409475       62.17937039626830
H           50.35201141413368       40.95990092050548       63.31431641461904
H           45.56455668966027       53.70801286749620       58.08365442206289
H           44.48763265000245       56.30181854312076       59.22703044769872
H           44.90513621938609       56.14492771745055       57.52174203633155
C           42.38589432325663       55.85670489537122       57.21820588216786
C           42.50307997880846       54.54293713980875       59.36330106587229
C           42.22775455063661       53.20796615323271       59.63446491930596
C           41.58494886295730       52.83641506560190       60.80240819934566
C           41.19402291532358       53.79646183673395       61.71819240916818
C           41.45310482132420       55.13071449609234       61.45542393773860
C           42.10080993674425       55.49898935232868       60.29026931589623
H           42.54159706495085       52.44784691289272       58.93437957940677
H           41.40358846965815       51.78907524773745       61.00167686385563
H           40.69801586765356       53.51198391630928       62.63453011332403
H           41.15419792619962       55.88562202204677       62.16788888724299
H           42.29809879669063       56.54506954429775       60.10445256887409
C           41.05806848599553       55.21203247386161       56.82222550513463
H           42.20395634502805       56.79537078885447       57.74461410654514
H           42.95119407593535       56.07066087278714       56.30725879580657
C           40.35806482046491       55.86616521841413       55.66045974003264
C           39.53255720159828       55.09196096920733       54.85068295453939
C           38.85547592168328       55.64889150894766       53.78189062948434
C           38.99331865469907       56.99846830213726       53.50267721209362
C           39.81078244541106       57.78092093603917       54.29956776058426
C           40.48669976395657       57.21789081803536       55.36922282876498
H           39.41322526160319       54.03975269678335       55.06768322450161
H           38.22177473602665       55.02728251083601       53.16506457314096
H           38.46011194955744       57.43924553135286       52.67173906142763
H           39.92170844494333       58.83582580797497       54.08976060999538
H           41.11525715980130       57.84829413237628       55.97892581309799
H           43.42613864818432       54.01971539020706       57.52206392349628
H           41.24372446911827       54.17080938718934       56.54958964089460
H           40.38432800132907       55.20517449256832       57.68568249319797
C           65.88490526763599       50.29466439076614       56.88387228047755
C           65.81825649947876       50.73857337822237       58.19978287099141
C           66.06439829201324       49.82964104401181       59.22010415001642
C           66.36305268966780       48.50805612814410       58.93706726520463
C           66.41399934396139       48.07431152562442       57.62397476858284
C           66.17500336652363       48.97330949636075       56.59835520625354
C           65.47304129779251       52.17051262988080       58.52360029403471
C           66.62361746737842       53.09786832637576       58.12360355218905
C           64.17653053310788       52.61293847088556       57.83056215539352
C           63.04301310688750       51.59439463317127       57.99482430826363
C           62.72518678381514       51.32760146114135       59.44351435080885
C           62.33155288521520       52.35355919561248       60.29578618380593
C           62.02155566625777       52.09758171540805       61.61937828260166
C           62.09020150867614       50.80552193119438       62.11305084411071
C           62.48132236211416       49.77578345163369       61.27491837853622
C           62.79618245674547       50.03736873174850       59.95283192084359
C           61.77054760665411       52.02786411378430       57.24881232962935
C           60.94167371569588       50.79640345574139       56.86273456052157
C           61.61527547677598       50.06994314612421       55.72440809339763
C           61.73607402949709       50.66121540260299       54.47201052961690
C           62.36471891558206       49.99885104723499       53.43386604068708
C           62.90056151022591       48.73743021643816       53.63578892700320
C           62.78716438603875       48.13793979507408       54.87756805329563
C           62.14330166293821       48.79875719016476       55.90940152122262
C           59.50058294900958       51.14737226677850       56.47453211888399
C           58.62393491539466       51.70999777295623       57.60994796697308
C           57.22884004444643       51.83724297525890       57.05735929628340
C           56.74492817231994       53.07444274286724       56.65416963963643
C           55.48136269309800       53.19691505315861       56.10317884286335
C           54.68095495391721       52.07725527672250       55.96433963271214
C           55.14981949161088       50.83996180723789       56.36746143664864
C           56.42066235854839       50.71762534342569       56.89562028269256
C           58.68813512225322       50.82764902370566       58.86413735504641
C           57.57473603605057       51.09986357302834       59.88799510154792
C           57.51760842304606       52.56971471074637       60.22347290362892
C           58.58909145349400       53.19881802744773       60.84692965126224
C           58.54424251070532       54.54980701537834       61.13842034084706
C           57.42915255773889       55.29927010836700       60.80277014085566
C           56.35836795772019       54.68315315367828       60.18156094207394
C           56.39911847149830       53.32774966601642       59.90326993645603
C           57.77263382140476       50.26511760668145       61.16623988732577
C           57.31236104728148       48.80276524344342       61.04711029763441
C           58.12846309686302       48.01462418921368       60.05409654753380
C           59.50188306928967       47.85602416686864       60.20869800711299
C           60.23882570792986       47.13068003690898       59.29001626258307
C           59.61572322418570       46.54157529066757       58.20247018449562
C           58.24724220404856       46.67882107389043       58.04641304932360
C           57.51192391570583       47.40748364680582       58.96529841874568
C           57.36451792619660       48.13090969306162       62.43090226547189
C           57.02267632893153       46.63736284888723       62.36529586350215
C           55.63961466290359       46.38060459917208       61.82223719305183
C           55.45874664197076       45.51157412551810       60.75269530268362
C           54.19115172709768       45.18729456413870       60.30444641389852
C           53.07546447985749       45.73953121417814       60.90964288694900
C           53.24485564658143       46.62705658148047       61.95704831464446
C           54.51258392293427       46.93994608126566       62.41205551714312
C           57.16617777370432       45.97967792050651       63.74880003983374
C           56.87107434214494       44.46957955812531       63.71947340994066
C           56.79795247621423       43.92311404587089       65.12349158788979
C           55.57219905155047       43.55462832076324       65.66527780078187
C           55.48519511468975       43.02171419585115       66.93931691071947