      -----------------------------------------------------------      
     |                   =====================                   |     
     |                           x T B                           |     
     |                   =====================                   |     
     |                         S. Grimme                         |     
     |          Mulliken Center for Theoretical Chemistry        |     
     |                    University of Bonn                     |     
      -----------------------------------------------------------      

   * xtb version 6.6.1 (8d0f1dd) compiled by 'stahn@M-Bot' on 2023-08-01

   xtb is free software: you can redistribute it and/or modify it under
   the terms of the GNU Lesser General Public License as published by
   the Free Software Foundation, either version 3 of the License, or
   (at your option) any later version.
   
   xtb is distributed in the hope that it will be useful,
   but WITHOUT ANY WARRANTY; without even the implied warranty of
   MERCHANTABILITY or FITNESS FOR A PARTICULAR PURPOSE.  See the
   GNU Lesser General Public License for more details.
   
   Cite this work as:
   * C. Bannwarth, E. Caldeweyher, S. Ehlert, A. Hansen, P. Pracht,
     J. Seibert, S. Spicher, S. Grimme, WIREs Comput. Mol. Sci., 2020, 11,
     e01493. DOI: 10.1002/wcms.1493
   
   for GFN2-xTB:
   * C. Bannwarth, S. Ehlert and S. Grimme., J. Chem. Theory Comput., 2019,
     15, 1652-1671. DOI: 10.1021/acs.jctc.8b01176
   for GFN1-xTB:
   * S. Grimme, C. Bannwarth, P. Shushkov, J. Chem. Theory Comput., 2017,
     13, 1989-2009. DOI: 10.1021/acs.jctc.7b00118
   for GFN0-xTB:
   * P. Pracht, E. Caldeweyher, S. Ehlert, S. Grimme, ChemRxiv, 2019, preprint.
     DOI: 10.26434/chemrxiv.8326202.v1
   for GFN-FF:
   * S. Spicher and S. Grimme, Angew. Chem. Int. Ed., 2020, 59, 15665-15673.
     DOI: 10.1002/anie.202004239
   
   for ALPB and GBSA implicit solvation:
   * S. Ehlert, M. Stahn, S. Spicher, S. Grimme, J. Chem. Theory Comput.,
     2021, 17, 4250-4261. DOI: 10.1021/acs.jctc.1c00471
   
   for DFT-D4:
   * E. Caldeweyher, C. Bannwarth and S. Grimme, J. Chem. Phys., 2017,
     147, 034112. DOI: 10.1063/1.4993215
   * E. Caldeweyher, S. Ehlert, A. Hansen, H. Neugebauer, S. Spicher,
     C. Bannwarth and S. Grimme, J. Chem. Phys., 2019, 150, 154122.
     DOI: 10.1063/1.5090222
   * E. Caldeweyher, J.-M. Mewes, S. Ehlert and S. Grimme, Phys. Chem. Chem. Phys.
     2020, 22, 8499-8512. DOI: 10.1039/D0CP00502A
   
   for sTDA-xTB:
   * S. Grimme and C. Bannwarth, J. Chem. Phys., 2016, 145, 054103.
     DOI: 10.1063/1.4959605
   
   in the mass-spec context:
   * V. Asgeirsson, C. Bauer and S. Grimme, Chem. Sci., 2017, 8, 4879.
     DOI: 10.1039/c7sc00601b
   * J. Koopman and S. Grimme, ACS Omega 2019, 4, 12, 15120-15133.
     DOI: 10.1021/acsomega.9b02011
   
   for metadynamics refer to:
   * S. Grimme, J. Chem. Theory Comput., 2019, 155, 2847-2862
     DOI: 10.1021/acs.jctc.9b00143
   
   for SPH calculations refer to:
   * S. Spicher and S. Grimme, J. Chem. Theory Comput., 2021, 17, 1701-1714
     DOI: 10.1021/acs.jctc.0c01306
   
   with help from (in alphabetical order)
   P. Atkinson, C. Bannwarth, F. Bohle, G. Brandenburg, E. Caldeweyher
   M. Checinski, S. Dohm, S. Ehlert, S. Ehrlich, I. Gerasimov, C. Hölzer
   A. Katbashev, J. Koopman, C. Lavigne, S. Lehtola, F. März, M. Müller,
   F. Musil, H. Neugebauer, J. Pisarek, C. Plett, P. Pracht, F. Pultar,
   J. Seibert, P. Shushkov, S. Spicher, M. Stahn, M. Steiner, T. Strunk,
   J. Stückrath, T. Rose, and J. Unsleber
   
 * started run on 2024/07/12 at 08:30:35.370     

           -------------------------------------------------
          |                Calculation Setup                |
           -------------------------------------------------

          program call               : /home/abt-grimme/AK-bin/xtb input.xyz --input input.inp --opt --gbsa water
          hostname                   : boar007.thch.uni-bonn.de
          coordinate file            : input.xyz
          omp threads                :                     8

   ID    Z sym.   atoms
    1    6 C      1-146, 294-300, 306, 309-314, 323-468, 616-622, 628,
                  631-636, 645-790, 938-944, 950, 953-958, 967-1112,
                  1260-1266, 1272, 1275-1280, 1289-1434, 1582-1588, 1594,
                  1597-1602, 1611-1756, 1904-1910, 1916, 1919-1924,
                  1933-2078, 2226-2232, 2238, 2241-2246, 2255-2400,
                  2548-2554, 2560, 2563-2568, 2577-2722, 2870-2876, 2882,
                  2885-2890, 2899-3044, 3192-3198, 3204, 3207-3212,
                  3221-3366, 3514-3520, 3526, 3529-3534, 3543-3688,
                  3836-3842, 3848, 3851-3856
    2    1 H      147-293, 301-305, 307, 308, 315-322, 469-615, 623-627, 629,
                  630, 637-644, 791-937, 945-949, 951, 952, 959-966,
                  1113-1259, 1267-1271, 1273, 1274, 1281-1288, 1435-1581,
                  1589-1593, 1595, 1596, 1603-1610, 1757-1903, 1911-1915,
                  1917, 1918, 1925-1932, 2079-2225, 2233-2237, 2239, 2240,
                  2247-2254, 2401-2547, 2555-2559, 2561, 2562, 2569-2576,
                  2723-2869, 2877-2881, 2883, 2884, 2891-2898, 3045-3191,
                  3199-3203, 3205, 3206, 3213-3220, 3367-3513, 3521-3525,
                  3527, 3528, 3535-3542, 3689-3835, 3843-3847, 3849, 3850,
                  3857-3864

molecular fragmentation (1/2 indicates fragments):
111111111111111111111111111111111111111111111111111111111111111111111111
111111111111111111111111111111111111111111111111111111111111111111111111
111111111111111111111111111111111111111111111111111111111111111111111111
111111111111111111111111111111111111111111111111111111111111111111111111
111111111111111111111111111111111122222222222222222222222222222222222222
222222222222222222222222222222222222222222222222222222222222222222222222
222222222222222222222222222222222222222222222222222222222222222222222222
222222222222222222222222222222222222222222222222222222222222222222222222
222222222222222222222222222222222222222222222222222222222222222222222222
222222222222222222222222222222222222222222222222222222222222222222222222
222222222222222222222222222222222222222222222222222222222222222222222222
222222222222222222222222222222222222222222222222222222222222222222222222
222222222222222222222222222222222222222222222222222222222222222222222222
222222222222222222222222222222222222222222222222222222222222222222222222
222222222222222222222222222222222222222222222222222222222222222222222222
222222222222222222222222222222222222222222222222222222222222222222222222
222222222222222222222222222222222222222222222222222222222222222222222222
222222222222222222222222222222222222222222222222222222222222222222222222
222222222222222222222222222222222222222222222222222222222222222222222222
222222222222222222222222222222222222222222222222222222222222222222222222
222222222222222222222222222222222222222222222222222222222222222222222222
222222222222222222222222222222222222222222222222222222222222222222222222
222222222222222222222222222222222222222222222222222222222222222222222222
222222222222222222222222222222222222222222222222222222222222222222222222
222222222222222222222222222222222222222222222222222222222222222222222222
222222222222222222222222222222222222222222222222222222222222222222222222
222222222222222222222222222222222222222222222222222222222222222222222222
222222222222222222222222222222222222222222222222222222222222222222222222
222222222222222222222222222222222222222222222222222222222222222222222222
222222222222222222222222222222222222222222222222222222222222222222222222
222222222222222222222222222222222222222222222222222222222222222222222222
222222222222222222222222222222222222222222222222222222222222222222222222
222222222222222222222222222222222222222222222222222222222222222222222222
222222222222222222222222222222222222222222222222222222222222222222222222
222222222222222222222222222222222222222222222222222222222222222222222222
222222222222222222222222222222222222222222222222222222222222222222222222
222222222222222222222222222222222222222222222222222222222222222222222222
222222222222222222222222222222222222222222222222222222222222222222222222
222222222222222222222222222222222222222222222222222222222222222222222222
222222222222222222222222222222222222222222222222222222222222222222222222
222222222222222222222222222222222222222222222222222222222222222222222222
222222222222222222222222222222222222222222222222222222222222222222222222
222222222222222222222222222222222222222222222222222222222222222222222222
222222222222222222222222222222222222222222222222222222222222222222222222
222222222222222222222222222222222222222222222222222222222222222222222222
222222222222222222222222222222222222222222222222222222222222222222222222
222222222222222222222222222222222222222222222222222222222222222222222222
222222222222222222222222222222222222222222222222222222222222222222222222
222222222222222222222222222222222222222222222222222222222222222222222222
222222222222222222222222222222222222222222222222222222222222222222222222
222222222222222222222222222222222222222222222222222222222222222222222222
222222222222222222222222222222222222222222222222222222222222222222222222
222222222222222222222222222222222222222222222222222222222222222222222222
222222222222222222222222222222222222222222222222
# atoms in fragment 1/2:   322  3542
 fragment masses (1/2) :     2085.00    22935.05
CMA distance (Bohr)    :  32.395
constraining FC (au)   :  0.0500

           -------------------------------------------------
          |                 G F N 2 - x T B                 |
           -------------------------------------------------

        Reference                      10.1021/acs.jctc.8b01176
      * Hamiltonian:
        H0-scaling (s, p, d)           1.850000    2.230000    2.230000
        zeta-weighting                 0.500000
      * Dispersion:
        s8                             2.700000
        a1                             0.520000
        a2                             5.000000
        s9                             5.000000
      * Repulsion:
        kExp                           1.500000    1.000000
        rExp                           1.000000
      * Coulomb:
        alpha                          2.000000
        third order                    shell-resolved
        anisotropic                    true
        a3                             3.000000
        a5                             4.000000
        cn-shift                       1.200000
        cn-exp                         4.000000
        max-rad                        5.000000

      * Solvation model:               GBSA
        Solvent                        water
        Parameter file                 internal GFN2-xTB/GBSA
        Dielectric constant                8.0200E+01
        Reference state                gsolv [1 M gas/solution]
        Free energy shift                  1.8574E-03 Eh       1.1656E+00 kcal/mol
        Temperature                        2.9815E+02 K
        Density                            1.0000E+00 kg/L
        Solvent mass                       1.8000E+01 g/mol
        Interaction kernel             Still
        Born radius scaling (c1)           1.5524E+00
        Born radii integrator          GBOBC
        Born offset                        2.4628E-02 a0       4.6540E-02 AA
        H-bond correction              true
        Ion screening                  false
        Surface tension                    1.0000E-05 Eh       1.5569E+01 dyn/cm
        Grid points                               230 per atom
q/qsh data taken from xtbrestart
CAMM data taken from xtbrestart

          ...................................................
          :                      SETUP                      :
          :.................................................:
          :  # basis functions                9624          :
          :  # atomic orbitals                9624          :
          :  # shells                         5784          :
          :  # electrons                      9624          :
          :  max. iterations                   250          :
          :  Hamiltonian                  GFN2-xTB          :
          :  restarted?                       true          :
          :  GBSA solvation                   true          :
          :  PC potential                    false          :
          :  electronic temp.          300.0000000     K    :
          :  accuracy                    1.0000000          :
          :  -> integral cutoff          0.2500000E+02      :
          :  -> integral neglect         0.1000000E-07      :
          :  -> SCF convergence          0.1000000E-05 Eh   :
          :  -> wf. convergence          0.1000000E-03 e    :
          :  Broyden damping             0.4000000          :
          ...................................................

 iter      E             dE          RMSdq      gap      omega  full diag
   1  -5190.4465645 -0.519045E+04  0.772E-05    3.78       0.0  T
   2  -5190.4465645 -0.754426E-08  0.633E-05    3.78      25.4  T
   3  -5190.4465645 -0.533419E-08  0.526E-05    3.78      30.6  T

   *** convergence criteria satisfied after 3 iterations ***

         #    Occupation            Energy/Eh            Energy/eV
      -------------------------------------------------------------
         1        2.0000           -0.6334632             -17.2374
       ...           ...                  ...                  ...
      4806        2.0000           -0.3633995              -9.8886
      4807        2.0000           -0.3629396              -9.8761
      4808        2.0000           -0.3625156              -9.8646
      4809        2.0000           -0.3610389              -9.8244
      4810        2.0000           -0.3609062              -9.8208
      4811        2.0000           -0.3608834              -9.8201
      4812        2.0000           -0.3599110              -9.7937 (HOMO)
      4813                         -0.2208334              -6.0092 (LUMO)
      4814                         -0.2196907              -5.9781
      4815                         -0.2196170              -5.9761
      4816                         -0.2192845              -5.9670
      4817                         -0.2190834              -5.9616
       ...                                ...                  ...
      9624                          0.6690874              18.2068
      -------------------------------------------------------------
                  HL-Gap            0.1390777 Eh            3.7845 eV
             Fermi-level           -0.2903722 Eh           -7.9014 eV

 SCC (total)                   0 d,  0 h, 16 min,  0.094 sec
 SCC setup                      ...        0 min,  2.341 sec (  0.244%)
 Dispersion                     ...        0 min,  6.762 sec (  0.704%)
 classical contributions        ...        0 min,  0.145 sec (  0.015%)
 integral evaluation            ...        0 min, 11.692 sec (  1.218%)
 iterations                     ...       10 min, 40.466 sec ( 66.709%)
 molecular gradient             ...        4 min, 31.454 sec ( 28.274%)
 printout                       ...        0 min, 27.234 sec (  2.837%)

         :::::::::::::::::::::::::::::::::::::::::::::::::::::
         ::                     SUMMARY                     ::
         :::::::::::::::::::::::::::::::::::::::::::::::::::::
         :: total energy           -5103.346803554122 Eh    ::
         :: total w/o Gsasa/hb     -5103.154618167947 Eh    ::
         :: gradient norm              0.738449027438 Eh/a0 ::
         :: HOMO-LUMO gap              3.784495742682 eV    ::
         ::.................................................::
         :: SCC energy             -5190.446564470338 Eh    ::
         :: -> isotropic ES            0.284419719651 Eh    ::
         :: -> anisotropic ES          0.822684766700 Eh    ::
         :: -> anisotropic XC          3.455396469906 Eh    ::
         :: -> dispersion             -6.895448696503 Eh    ::
         :: -> Gsolv                  -0.205084964475 Eh    ::
         ::    -> Gelec               -0.012899578300 Eh    ::
         ::    -> Gsasa               -0.187086133743 Eh    ::
         ::    -> Ghb                 -0.006956695559 Eh    ::
         ::    -> Gshift               0.001857443127 Eh    ::
         :: repulsion energy          85.975523777937 Eh    ::
         :: add. restraining           0.000000000000 Eh    ::
         :: total charge              -0.000000000032 e     ::
         :::::::::::::::::::::::::::::::::::::::::::::::::::::

      ----------------------------------------------------------- 
     |              Fast Inertial Relaxation Engine              |
      ----------------------------------------------------------- 

          ...................................................
          :                      SETUP                      :
          :.................................................:
          :   energy convergence        0.5000000E-05 Eh    :
          :   grad. convergence         0.1000000E-02 Eh/a0 :
          :   optimization log               true           :
          :   writing optlog all                1     steps :
          :   Hessian reset                    20     steps :
          :   time step scaling                 5     steps :
          :   maximium step len.        1.0000000     a0    :
          :   initial time step         0.2500000     fs    :
          :   maximum time step         1.2500000     fs    :
          :   power reset thr           0.0000000     au    :
          :   alpha parameter           0.1000000           :
          :   BFGS update                   false           :
          :   preconditioning               false           :
          ...................................................

........................................................................
.............................. CYCLE    1 ..............................
........................................................................

 iter      E             dE          RMSdq      gap      omega  full diag
   1  -5190.6588551 -0.519066E+04  0.901E-03    3.80       0.0  T
   2  -5190.6588913 -0.361813E-04  0.551E-03    3.79       1.0  T
   3  -5190.6588818  0.952552E-05  0.296E-03    3.79       1.0  T
   4  -5190.6588999 -0.181108E-04  0.796E-04    3.79       2.0  T
   5  -5190.6589016 -0.176761E-05  0.281E-04    3.79       5.7  T
   6  -5190.6589017 -0.116441E-06  0.190E-04    3.79       8.5  T
   7  -5190.6589018 -0.548880E-07  0.136E-04    3.79      11.9  T
     SCC iter.                  ...       24 min, 40.677 sec
     gradient                   ...        4 min, 33.658 sec
 * total energy  : -5103.4079649 Eh     change    :  -0.6116138E-01 Eh
   gradient norm :     0.6784236 Eh/a0  converged?    E=F G=F D=F
   time step     :     0.2500000 fs     power     :   0.3108797E-05
   step length   :     0.0865447 a0     speed     :   0.8373660E-02

........................................................................
.............................. CYCLE    2 ..............................
........................................................................

 iter      E             dE          RMSdq      gap      omega  full diag
   1  -5190.9712789 -0.519097E+04  0.131E-02    3.81       0.0  T
   2  -5190.9713558 -0.769122E-04  0.802E-03    3.81       1.0  T
   3  -5190.9713360  0.198042E-04  0.428E-03    3.81       1.0  T
   4  -5190.9713737 -0.376641E-04  0.116E-03    3.81       1.4  T
   5  -5190.9713774 -0.378011E-05  0.424E-04    3.81       3.8  T
   6  -5190.9713777 -0.259486E-06  0.295E-04    3.80       5.5  T
   7  -5190.9713778 -0.138518E-06  0.213E-04    3.80       7.6  T
     SCC iter.                  ...       24 min, 44.075 sec
     gradient                   ...        4 min, 36.000 sec
 * total energy  : -5103.4881230 Eh     change    :  -0.8015808E-01 Eh
   gradient norm :     0.5955907 Eh/a0  converged?    E=F G=F D=F
   time step     :     0.2500000 fs     power     :   0.3966060E-05
   step length   :     0.1262265 a0     speed     :   0.1221309E-01

........................................................................
.............................. CYCLE    3 ..............................
........................................................................

 iter      E             dE          RMSdq      gap      omega  full diag
   1  -5191.3763792 -0.519138E+04  0.166E-02    3.82       0.0  T
   2  -5191.3765025 -0.123271E-03  0.102E-02    3.82       1.0  T
   3  -5191.3764708  0.316660E-04  0.537E-03    3.82       1.0  T
   4  -5191.3765300 -0.591899E-04  0.147E-03    3.82       1.1  T
   5  -5191.3765361 -0.611271E-05  0.541E-04    3.82       3.0  T
   6  -5191.3765365 -0.413959E-06  0.382E-04    3.81       4.2  T
   7  -5191.3765368 -0.239030E-06  0.277E-04    3.81       5.8  T
     SCC iter.                  ...       24 min, 41.637 sec
     gradient                   ...        4 min, 30.181 sec
 * total energy  : -5103.5751616 Eh     change    :  -0.8703853E-01 Eh
   gradient norm :     0.4978105 Eh/a0  converged?    E=F G=F D=F
   time step     :     0.2500000 fs     power     :   0.4163743E-05
   step length   :     0.1609232 a0     speed     :   0.1557018E-01

........................................................................
.............................. CYCLE    4 ..............................
........................................................................

 iter      E             dE          RMSdq      gap      omega  full diag
   1  -5191.8660063 -0.519187E+04  0.194E-02    3.83       0.0  T
   2  -5191.8661716 -0.165335E-03  0.119E-02    3.83       1.0  T
   3  -5191.8661284  0.431847E-04  0.615E-03    3.83       1.0  T
   4  -5191.8662066 -0.781458E-04  0.171E-03    3.82       1.0  T
   5  -5191.8662149 -0.831869E-05  0.632E-04    3.82       2.5  T
   6  -5191.8662154 -0.543575E-06  0.452E-04    3.82       3.6  T
   7  -5191.8662158 -0.342565E-06  0.327E-04    3.82       4.9  T
     SCC iter.                  ...       24 min, 42.207 sec
     gradient                   ...        4 min, 34.871 sec
 * total energy  : -5103.6570663 Eh     change    :  -0.8190477E-01 Eh
   gradient norm :     0.3993805 Eh/a0  converged?    E=F G=F D=F
   time step     :     0.2500000 fs     power     :   0.3744772E-05
   step length   :     0.1893768 a0     speed     :   0.1832323E-01

........................................................................
.............................. CYCLE    5 ..............................
........................................................................

 iter      E             dE          RMSdq      gap      omega  full diag
   1  -5192.4315653 -0.519243E+04  0.213E-02    3.83       0.0  T
   2  -5192.4317568 -0.191473E-03  0.130E-02    3.83       1.0  T
   3  -5192.4317045  0.523383E-04  0.655E-03    3.83       1.0  T
   4  -5192.4317944 -0.899323E-04  0.184E-03    3.83       1.0  T
   5  -5192.4318043 -0.987150E-05  0.689E-04    3.83       2.3  T
   6  -5192.4318049 -0.612228E-06  0.498E-04    3.83       3.2  T
   7  -5192.4318053 -0.429511E-06  0.358E-04    3.83       4.5  T
     SCC iter.                  ...       24 min, 38.929 sec
     gradient                   ...        4 min, 33.028 sec
 * total energy  : -5103.7246760 Eh     change    :  -0.6760969E-01 Eh
   gradient norm :     0.3229138 Eh/a0  converged?    E=F G=F D=F
   time step     :     0.2500000 fs     power     :   0.2900296E-05
   step length   :     0.2104893 a0     speed     :   0.2036597E-01

........................................................................
.............................. CYCLE    6 ..............................
........................................................................

 iter      E             dE          RMSdq      gap      omega  full diag
   1  -5193.1297181 -0.519313E+04  0.243E-02    3.84       0.0  T
   2  -5193.1299494 -0.231318E-03  0.147E-02    3.84       1.0  T
   3  -5193.1298805  0.689000E-04  0.710E-03    3.84       1.0  T
   4  -5193.1299899 -0.109402E-03  0.204E-03    3.84       1.0  T
   5  -5193.1300023 -0.124141E-04  0.770E-04    3.84       2.1  T
   6  -5193.1300030 -0.705343E-06  0.559E-04    3.84       2.9  T
   7  -5193.1300036 -0.560188E-06  0.397E-04    3.84       4.0  T
     SCC iter.                  ...       24 min, 48.073 sec
     gradient                   ...        4 min, 32.737 sec
 * total energy  : -5103.7783239 Eh     change    :  -0.5364787E-01 Eh
   gradient norm :     0.2936541 Eh/a0  converged?    E=F G=F D=F
   time step     :     0.2750000 fs     power     :   0.1837713E-05
   step length   :     0.2469282 a0     speed     :   0.2171966E-01

........................................................................
.............................. CYCLE    7 ..............................
........................................................................

 iter      E             dE          RMSdq      gap      omega  full diag
   1  -5193.9515635 -0.519395E+04  0.258E-02    3.85       0.0  T
   2  -5193.9517876 -0.224013E-03  0.155E-02    3.85       1.0  T
   3  -5193.9517131  0.744850E-04  0.683E-03    3.85       1.0  T
   4  -5193.9518203 -0.107202E-03  0.204E-03    3.85       1.0  T
   5  -5193.9518331 -0.128329E-04  0.799E-04    3.85       2.0  T
   6  -5193.9518338 -0.701442E-06  0.574E-04    3.84       2.8  T
   7  -5193.9518345 -0.636175E-06  0.400E-04    3.84       4.0  T
     SCC iter.                  ...       24 min, 45.753 sec
     gradient                   ...        4 min, 33.741 sec
 * total energy  : -5103.8162868 Eh     change    :  -0.3796296E-01 Eh
   gradient norm :     0.3220609 Eh/a0  converged?    E=F G=F D=F
   time step     :     0.3025000 fs     power     :   0.9905000E-06
   step length   :     0.2756731 a0     speed     :   0.2204368E-01

........................................................................
.............................. CYCLE    8 ..............................
........................................................................

 iter      E             dE          RMSdq      gap      omega  full diag
   1  -5194.8611869 -0.519486E+04  0.258E-02    3.86       0.0  T
   2  -5194.8613533 -0.166430E-03  0.153E-02    3.86       1.0  T
   3  -5194.8612984  0.548924E-04  0.552E-03    3.86       1.0  T
   4  -5194.8613715 -0.730100E-04  0.180E-03    3.85       1.0  T
   5  -5194.8613816 -0.101657E-04  0.760E-04    3.85       2.1  T
   6  -5194.8613823 -0.640221E-06  0.510E-04    3.85       3.2  T
   7  -5194.8613828 -0.577662E-06  0.351E-04    3.85       4.6  T
     SCC iter.                  ...       24 min, 41.516 sec
     gradient                   ...        4 min, 33.905 sec
 * total energy  : -5103.8466731 Eh     change    :  -0.3038626E-01 Eh
   gradient norm :     0.3650356 Eh/a0  converged?    E=F G=F D=F
   time step     :     0.3327500 fs     power     :   0.7070614E-06
   step length   :     0.2959527 a0     speed     :   0.2151391E-01

........................................................................
.............................. CYCLE    9 ..............................
........................................................................

 iter      E             dE          RMSdq      gap      omega  full diag
   1  -5195.8145987 -0.519581E+04  0.253E-02    3.87       0.0  T
   2  -5195.8146975 -0.988084E-04  0.148E-02    3.87       1.0  T
   3  -5195.8146814  0.160779E-04  0.356E-03    3.87       1.0  T
   4  -5195.8147071 -0.257325E-04  0.126E-03    3.86       1.3  T
   5  -5195.8147113 -0.419138E-05  0.663E-04    3.86       2.4  T
   6  -5195.8147119 -0.531530E-06  0.389E-04    3.86       4.1  T
   7  -5195.8147123 -0.387286E-06  0.274E-04    3.86       5.9  T
     SCC iter.                  ...       24 min, 40.975 sec
     gradient                   ...        4 min, 37.207 sec
 * total energy  : -5103.8825662 Eh     change    :  -0.3589310E-01 Eh
   gradient norm :     0.3770183 Eh/a0  converged?    E=F G=F D=F
   time step     :     0.3660250 fs     power     :   0.9304770E-06
   step length   :     0.3160409 a0     speed     :   0.2088563E-01

........................................................................
.............................. CYCLE   10 ..............................
........................................................................

 iter      E             dE          RMSdq      gap      omega  full diag
   1  -5196.7661077 -0.519677E+04  0.259E-02    3.88       0.0  T
   2  -5196.7661826 -0.748291E-04  0.152E-02    3.88       1.0  T
   3  -5196.7661502  0.323441E-04  0.409E-03    3.87       1.0  T
   4  -5196.7661961 -0.458934E-04  0.108E-03    3.87       1.5  T
   5  -5196.7661986 -0.252064E-05  0.547E-04    3.87       2.9  T
   6  -5196.7661989 -0.292080E-06  0.343E-04    3.87       4.7  T
   7  -5196.7661992 -0.227546E-06  0.215E-04    3.87       7.5  T
     SCC iter.                  ...       24 min, 44.868 sec
     gradient                   ...        4 min, 40.928 sec
 * total energy  : -5103.9308827 Eh     change    :  -0.4831652E-01 Eh
   gradient norm :     0.3332512 Eh/a0  converged?    E=F G=F D=F
   time step     :     0.4026275 fs     power     :   0.1210547E-05
   step length   :     0.3453379 a0     speed     :   0.2074703E-01

........................................................................
.............................. CYCLE   11 ..............................
........................................................................

 iter      E             dE          RMSdq      gap      omega  full diag
   1  -5197.6656195 -0.519767E+04  0.288E-02    3.88       0.0  T
   2  -5197.6657514 -0.131966E-03  0.171E-02    3.88       1.0  T
   3  -5197.6656406  0.110801E-03  0.698E-03    3.88       1.0  T
   4  -5197.6657897 -0.149103E-03  0.137E-03    3.88       1.2  T
   5  -5197.6657939 -0.420303E-05  0.586E-04    3.88       2.7  T
   6  -5197.6657946 -0.713584E-06  0.298E-04    3.88       5.4  T
   7  -5197.6657947 -0.731516E-07  0.153E-04    3.88      10.5  T
     SCC iter.                  ...       24 min, 37.375 sec
     gradient                   ...        4 min, 33.432 sec
 * total energy  : -5103.9811616 Eh     change    :  -0.5027892E-01 Eh
   gradient norm :     0.2357348 Eh/a0  converged?    E=F G=F D=F
   time step     :     0.4428903 fs     power     :   0.9391577E-06
   step length   :     0.3860382 a0     speed     :   0.2108382E-01

........................................................................
.............................. CYCLE   12 ..............................
........................................................................

 iter      E             dE          RMSdq      gap      omega  full diag
   1  -5198.4563259 -0.519846E+04  0.325E-02    3.88       0.0  T
   2  -5198.4565730 -0.247021E-03  0.196E-02    3.88       1.0  T
   3  -5198.4564052  0.167718E-03  0.939E-03    3.87       1.0  T
   4  -5198.4566497 -0.244447E-03  0.179E-03    3.88       1.0  T
   5  -5198.4566577 -0.803527E-05  0.674E-04    3.87       2.4  T
   6  -5198.4566586 -0.915624E-06  0.353E-04    3.87       4.6  T
   7  -5198.4566587 -0.926548E-07  0.209E-04    3.87       7.7  T
     SCC iter.                  ...       24 min, 42.730 sec
     gradient                   ...        4 min, 35.211 sec
 * total energy  : -5104.0051798 Eh     change    :  -0.2401815E-01 Eh
   gradient norm :     0.1684083 Eh/a0  converged?    E=F G=F D=F
   time step     :     0.4871793 fs     power     :  -0.1424981E-06
   step length   :     0.4254472 a0     speed     :   0.2112380E-01

........................................................................
.............................. CYCLE   13 ..............................
........................................................................
 * reset velocities

 iter      E             dE          RMSdq      gap      omega  full diag
   1  -5198.4431297 -0.519844E+04  0.907E-04    3.87       0.0  T
   2  -5198.4431301 -0.404087E-06  0.545E-04    3.87       3.0  T
   3  -5198.4431301  0.118080E-07  0.257E-04    3.87       6.3  T
     SCC iter.                  ...       10 min, 39.643 sec
     gradient                   ...        4 min, 28.922 sec
 * total energy  : -5104.0067345 Eh     change    :  -0.1554691E-02 Eh
   gradient norm :     0.1634948 Eh/a0  converged?    E=F G=F D=F
   time step     :     0.2435896 fs     power     :   0.8342646E-07
   step length   :     0.0093689 a0     speed     :   0.9303515E-03

........................................................................
.............................. CYCLE   14 ..............................
........................................................................

 iter      E             dE          RMSdq      gap      omega  full diag
   1  -5198.4163469 -0.519842E+04  0.178E-03    3.87       0.0  T
   2  -5198.4163484 -0.142907E-05  0.107E-03    3.87       1.5  T
   3  -5198.4163483  0.923183E-07  0.449E-04    3.87       3.6  T
   4  -5198.4163485 -0.229319E-06  0.138E-04    3.87      11.7  T
     SCC iter.                  ...       14 min, 13.720 sec
     gradient                   ...        4 min, 28.649 sec
 * total energy  : -5104.0096642 Eh     change    :  -0.2929753E-02 Eh
   gradient norm :     0.1540448 Eh/a0  converged?    E=F G=F D=F
   time step     :     0.2435896 fs     power     :   0.1547322E-06
   step length   :     0.0184636 a0     speed     :   0.1833468E-02

........................................................................
.............................. CYCLE   15 ..............................
........................................................................

 iter      E             dE          RMSdq      gap      omega  full diag
   1  -5198.3768506 -0.519838E+04  0.256E-03    3.87       0.0  T
   2  -5198.3768536 -0.302831E-05  0.154E-03    3.87       1.0  T
   3  -5198.3768534  0.279036E-06  0.700E-04    3.87       2.3  T
   4  -5198.3768540 -0.643810E-06  0.209E-04    3.87       7.7  T
     SCC iter.                  ...       14 min, 10.212 sec
     gradient                   ...        4 min, 34.989 sec
 * total energy  : -5104.0136402 Eh     change    :  -0.3975937E-02 Eh
   gradient norm :     0.1409759 Eh/a0  converged?    E=F G=F D=F
   time step     :     0.2435896 fs     power     :   0.2064762E-06
   step length   :     0.0270250 a0     speed     :   0.2683622E-02

........................................................................
.............................. CYCLE   16 ..............................
........................................................................

 iter      E             dE          RMSdq      gap      omega  full diag
   1  -5198.3254369 -0.519833E+04  0.328E-03    3.87       0.0  T
   2  -5198.3254417 -0.483076E-05  0.197E-03    3.87       1.0  T
   3  -5198.3254412  0.502882E-06  0.885E-04    3.87       1.8  T
   4  -5198.3254423 -0.107516E-05  0.271E-04    3.87       5.9  T
   5  -5198.3254424 -0.189713E-06  0.983E-05    3.87      16.4  T
     SCC iter.                  ...       17 min, 43.577 sec
     gradient                   ...        4 min, 35.316 sec
 * total energy  : -5104.0182446 Eh     change    :  -0.4604398E-02 Eh
   gradient norm :     0.1256438 Eh/a0  converged?    E=F G=F D=F
   time step     :     0.2435896 fs     power     :   0.2347415E-06
   step length   :     0.0348300 a0     speed     :   0.3458673E-02

........................................................................
.............................. CYCLE   17 ..............................
........................................................................

 iter      E             dE          RMSdq      gap      omega  full diag
   1  -5198.2631736 -0.519826E+04  0.388E-03    3.87       0.0  T
   2  -5198.2631803 -0.665136E-05  0.232E-03    3.87       1.0  T
   3  -5198.2631796  0.658725E-06  0.102E-03    3.87       1.6  T
   4  -5198.2631810 -0.139686E-05  0.315E-04    3.87       5.1  T
   5  -5198.2631813 -0.256693E-06  0.115E-04    3.87      14.0  T
   6  -5198.2631813 -0.160253E-07  0.811E-05    3.87      19.8  T
     SCC iter.                  ...       21 min, 11.068 sec
     gradient                   ...        4 min, 33.550 sec
 * total energy  : -5104.0230444 Eh     change    :  -0.4799832E-02 Eh
   gradient norm :     0.1099052 Eh/a0  converged?    E=F G=F D=F
   time step     :     0.2435896 fs     power     :   0.2398915E-06
   step length   :     0.0416995 a0     speed     :   0.4140825E-02

........................................................................
.............................. CYCLE   18 ..............................
........................................................................

 iter      E             dE          RMSdq      gap      omega  full diag
   1  -5198.1914853 -0.519819E+04  0.435E-03    3.87       0.0  T
   2  -5198.1914932 -0.794394E-05  0.261E-03    3.87       1.0  T
   3  -5198.1914922  0.103765E-05  0.112E-03    3.87       1.4  T
   4  -5198.1914941 -0.188296E-05  0.359E-04    3.87       4.5  T
   5  -5198.1914944 -0.352530E-06  0.124E-04    3.87      13.0  T
   6  -5198.1914945 -0.175787E-07  0.855E-05    3.87      18.8  T
     SCC iter.                  ...       21 min, 14.770 sec
     gradient                   ...        4 min, 33.559 sec
 * total energy  : -5104.0276723 Eh     change    :  -0.4627855E-02 Eh
   gradient norm :     0.0960197 Eh/a0  converged?    E=F G=F D=F
   time step     :     0.2435896 fs     power     :   0.2266176E-06
   step length   :     0.0474969 a0     speed     :   0.4716522E-02

........................................................................
.............................. CYCLE   19 ..............................
........................................................................

 iter      E             dE          RMSdq      gap      omega  full diag
   1  -5198.1035541 -0.519810E+04  0.520E-03    3.87       0.0  T
   2  -5198.1035645 -0.103876E-04  0.311E-03    3.87       1.0  T
   3  -5198.1035627  0.180508E-05  0.129E-03    3.87       1.2  T
   4  -5198.1035656 -0.288951E-05  0.424E-04    3.87       3.8  T
   5  -5198.1035661 -0.514968E-06  0.141E-04    3.87      11.4  T
   6  -5198.1035661 -0.197351E-07  0.944E-05    3.87      17.0  T
     SCC iter.                  ...       21 min, 13.344 sec
     gradient                   ...        4 min, 29.785 sec
 * total energy  : -5104.0323095 Eh     change    :  -0.4637226E-02 Eh
   gradient norm :     0.0853234 Eh/a0  converged?    E=F G=F D=F
   time step     :     0.2679486 fs     power     :   0.1996279E-06
   step length   :     0.0578821 a0     speed     :   0.5225258E-02

........................................................................
.............................. CYCLE   20 ..............................
........................................................................

 iter      E             dE          RMSdq      gap      omega  full diag
   1  -5197.9999576 -0.519800E+04  0.603E-03    3.87       0.0  T
   2  -5197.9999696 -0.120121E-04  0.361E-03    3.87       1.0  T
   3  -5197.9999665  0.309208E-05  0.143E-03    3.87       1.1  T
   4  -5197.9999709 -0.440988E-05  0.473E-04    3.87       3.4  T
   5  -5197.9999716 -0.670047E-06  0.154E-04    3.87      10.5  T
   6  -5197.9999716 -0.189384E-07  0.983E-05    3.87      16.4  T
     SCC iter.                  ...       21 min, 12.172 sec
     gradient                   ...        4 min, 32.969 sec
 * total energy  : -5104.0367380 Eh     change    :  -0.4428504E-02 Eh
   gradient norm :     0.0803212 Eh/a0  converged?    E=F G=F D=F
   time step     :     0.2947435 fs     power     :   0.1678251E-06
   step length   :     0.0686129 a0     speed     :   0.5630884E-02
 * RMSD in coord.:     0.0409668 a0     energy gain  -0.6899344E+00 Eh

........................................................................
.............................. CYCLE   21 ..............................
........................................................................

 iter      E             dE          RMSdq      gap      omega  full diag
   1  -5197.9119791 -0.519791E+04  0.517E-03    3.87       0.0  T
   2  -5197.9119862 -0.707265E-05  0.310E-03    3.87       1.0  T
   3  -5197.9119833  0.289150E-05  0.117E-03    3.87       1.4  T
   4  -5197.9119871 -0.382630E-05  0.371E-04    3.87       4.3  T
   5  -5197.9119875 -0.422523E-06  0.124E-04    3.87      12.9  T
   6  -5197.9119875 -0.103291E-07  0.762E-05    3.87      21.1  T
     SCC iter.                  ...       21 min, 13.073 sec
     gradient                   ...        4 min, 36.267 sec
 * total energy  : -5104.0400079 Eh     change    :  -0.3269936E-02 Eh
   gradient norm :     0.0798847 Eh/a0  converged?    E=F G=F D=F
   time step     :     0.2500000 fs     power     :   0.1510746E-06
   step length   :     0.0600006 a0     speed     :   0.5805382E-02

........................................................................
.............................. CYCLE   22 ..............................
........................................................................

 iter      E             dE          RMSdq      gap      omega  full diag
   1  -5197.8278333 -0.519783E+04  0.518E-03    3.87       0.0  T
   2  -5197.8278385 -0.523478E-05  0.311E-03    3.87       1.0  T
   3  -5197.8278350  0.357719E-05  0.113E-03    3.87       1.4  T
   4  -5197.8278395 -0.453159E-05  0.313E-04    3.87       5.1  T
   5  -5197.8278398 -0.296208E-06  0.109E-04    3.87      14.7  T
   6  -5197.8278398 -0.426917E-08  0.617E-05    3.87      26.1  T
     SCC iter.                  ...       21 min,  9.131 sec
     gradient                   ...        4 min, 34.255 sec
 * total energy  : -5104.0430835 Eh     change    :  -0.3075565E-02 Eh
   gradient norm :     0.0799203 Eh/a0  converged?    E=F G=F D=F
   time step     :     0.2500000 fs     power     :   0.1451401E-06
   step length   :     0.0609522 a0     speed     :   0.5897454E-02

........................................................................
.............................. CYCLE   23 ..............................
........................................................................

 iter      E             dE          RMSdq      gap      omega  full diag
   1  -5197.7507796 -0.519775E+04  0.521E-03    3.87       0.0  T
   2  -5197.7507832 -0.364501E-05  0.312E-03    3.87       1.0  T
   3  -5197.7507791  0.410144E-05  0.111E-03    3.87       1.5  T
   4  -5197.7507842 -0.508368E-05  0.249E-04    3.87       6.5  T
   5  -5197.7507844 -0.174223E-06  0.968E-05    3.87      16.6  T
   6  -5197.7507844 -0.153796E-08  0.519E-05    3.87      31.0  T
     SCC iter.                  ...       21 min, 10.553 sec
     gradient                   ...        4 min, 30.655 sec
 * total energy  : -5104.0461264 Eh     change    :  -0.3042944E-02 Eh
   gradient norm :     0.0787322 Eh/a0  converged?    E=F G=F D=F
   time step     :     0.2500000 fs     power     :   0.1466298E-06
   step length   :     0.0615571 a0     speed     :   0.5955980E-02

........................................................................
.............................. CYCLE   24 ..............................
........................................................................

 iter      E             dE          RMSdq      gap      omega  full diag
   1  -5197.6832240 -0.519768E+04  0.525E-03    3.87       0.0  T
   2  -5197.6832265 -0.252130E-05  0.314E-03    3.87       1.0  T
   3  -5197.6832222  0.427246E-05  0.108E-03    3.87       1.5  T
   4  -5197.6832275 -0.523493E-05  0.202E-04    3.87       8.0  T
   5  -5197.6832276 -0.101151E-06  0.909E-05    3.87      17.7  T
   6  -5197.6832276 -0.278123E-08  0.486E-05    3.87      33.1  T
     SCC iter.                  ...       21 min, 11.291 sec
     gradient                   ...        4 min, 29.989 sec
 * total energy  : -5104.0492134 Eh     change    :  -0.3086988E-02 Eh
   gradient norm :     0.0759590 Eh/a0  converged?    E=F G=F D=F
   time step     :     0.2500000 fs     power     :   0.1507247E-06
   step length   :     0.0621728 a0     speed     :   0.6015555E-02

........................................................................
.............................. CYCLE   25 ..............................
........................................................................

 iter      E             dE          RMSdq      gap      omega  full diag
   1  -5197.6267841 -0.519763E+04  0.530E-03    3.87       0.0  T
   2  -5197.6267860 -0.184202E-05  0.317E-03    3.87       1.0  T
   3  -5197.6267820  0.397888E-05  0.103E-03    3.87       1.6  T
   4  -5197.6267868 -0.485384E-05  0.178E-04    3.87       9.0  T
   5  -5197.6267869 -0.706477E-07  0.944E-05    3.87      17.0  T
   6  -5197.6267869 -0.827458E-08  0.543E-05    3.87      29.6  T
     SCC iter.                  ...       21 min,  8.167 sec
     gradient                   ...        4 min, 27.981 sec
 * total energy  : -5104.0523443 Eh     change    :  -0.3130927E-02 Eh
   gradient norm :     0.0720935 Eh/a0  converged?    E=F G=F D=F
   time step     :     0.2500000 fs     power     :   0.1537266E-06
   step length   :     0.0629503 a0     speed     :   0.6090775E-02

........................................................................
.............................. CYCLE   26 ..............................
........................................................................

 iter      E             dE          RMSdq      gap      omega  full diag
   1  -5197.5782271 -0.519758E+04  0.589E-03    3.87       0.0  T
   2  -5197.5782288 -0.177941E-05  0.350E-03    3.87       1.0  T
   3  -5197.5782249  0.390835E-05  0.103E-03    3.87       1.6  T
   4  -5197.5782297 -0.479171E-05  0.190E-04    3.87       8.5  T
   5  -5197.5782298 -0.738655E-07  0.115E-04    3.87      13.9  T
   6  -5197.5782298 -0.206837E-07  0.745E-05    3.87      21.6  T
     SCC iter.                  ...       21 min,  7.374 sec
     gradient                   ...        4 min, 29.965 sec
 * total energy  : -5104.0557960 Eh     change    :  -0.3451640E-02 Eh
   gradient norm :     0.0675088 Eh/a0  converged?    E=F G=F D=F
   time step     :     0.2750000 fs     power     :   0.1529207E-06
   step length   :     0.0706127 a0     speed     :   0.6211053E-02

........................................................................
.............................. CYCLE   27 ..............................
........................................................................

 iter      E             dE          RMSdq      gap      omega  full diag
   1  -5197.5405303 -0.519754E+04  0.649E-03    3.87       0.0  T
   2  -5197.5405321 -0.182254E-05  0.384E-03    3.87       1.0  T
   3  -5197.5405291  0.305875E-05  0.936E-04    3.87       1.7  T
   4  -5197.5405329 -0.386154E-05  0.214E-04    3.87       7.5  T
   5  -5197.5405330 -0.907630E-07  0.142E-04    3.87      11.4  T
   6  -5197.5405331 -0.364153E-07  0.100E-04    3.87      16.1  T
     SCC iter.                  ...       21 min, 11.427 sec
     gradient                   ...        4 min, 39.997 sec
 * total energy  : -5104.0595061 Eh     change    :  -0.3710104E-02 Eh
   gradient norm :     0.0631133 Eh/a0  converged?    E=F G=F D=F
   time step     :     0.3025000 fs     power     :   0.1478434E-06
   step length   :     0.0795868 a0     speed     :   0.6364008E-02

........................................................................
.............................. CYCLE   28 ..............................
........................................................................

 iter      E             dE          RMSdq      gap      omega  full diag
   1  -5197.5165193 -0.519752E+04  0.702E-03    3.87       0.0  T
   2  -5197.5165212 -0.186836E-05  0.414E-03    3.87       1.0  T
   3  -5197.5165195  0.168717E-05  0.775E-04    3.86       2.1  T
   4  -5197.5165219 -0.238292E-05  0.241E-04    3.86       6.7  T
   5  -5197.5165220 -0.111402E-06  0.166E-04    3.86       9.7  T
   6  -5197.5165220 -0.558030E-07  0.119E-04    3.86      13.5  T
     SCC iter.                  ...       21 min, 14.829 sec
     gradient                   ...        4 min, 28.005 sec
 * total energy  : -5104.0634075 Eh     change    :  -0.3901368E-02 Eh
   gradient norm :     0.0594429 Eh/a0  converged?    E=F G=F D=F
   time step     :     0.3327500 fs     power     :   0.1397325E-06
   step length   :     0.0898221 a0     speed     :   0.6529506E-02

........................................................................
.............................. CYCLE   29 ..............................
........................................................................

 iter      E             dE          RMSdq      gap      omega  full diag
   1  -5197.5084241 -0.519751E+04  0.743E-03    3.86       0.0  T
   2  -5197.5084260 -0.192398E-05  0.438E-03    3.86       1.0  T
   3  -5197.5084249  0.110913E-05  0.730E-04    3.86       2.2  T
   4  -5197.5084268 -0.184776E-05  0.254E-04    3.86       6.3  T
   5  -5197.5084269 -0.103635E-06  0.183E-04    3.86       8.8  T
   6  -5197.5084270 -0.795062E-07  0.126E-04    3.86      12.7  T
     SCC iter.                  ...       21 min, 16.117 sec
     gradient                   ...        4 min, 29.805 sec
 * total energy  : -5104.0674526 Eh     change    :  -0.4045096E-02 Eh
   gradient norm :     0.0566261 Eh/a0  converged?    E=F G=F D=F
   time step     :     0.3660250 fs     power     :   0.1303359E-06
   step length   :     0.1012302 a0     speed     :   0.6689821E-02

........................................................................
.............................. CYCLE   30 ..............................
........................................................................

 iter      E             dE          RMSdq      gap      omega  full diag
   1  -5197.5175422 -0.519752E+04  0.765E-03    3.85       0.0  T
   2  -5197.5175443 -0.211343E-05  0.452E-03    3.85       1.0  T
   3  -5197.5175419  0.237235E-05  0.944E-04    3.85       1.7  T
   4  -5197.5175453 -0.336365E-05  0.254E-04    3.85       6.3  T
   5  -5197.5175454 -0.922209E-07  0.189E-04    3.85       8.5  T
   6  -5197.5175455 -0.867067E-07  0.127E-04    3.85      12.7  T
     SCC iter.                  ...       21 min, 10.288 sec
     gradient                   ...        4 min, 27.998 sec
 * total energy  : -5104.0716319 Eh     change    :  -0.4179333E-02 Eh
   gradient norm :     0.0552028 Eh/a0  converged?    E=F G=F D=F
   time step     :     0.4026275 fs     power     :   0.1215562E-06
   step length   :     0.1137611 a0     speed     :   0.6834482E-02

........................................................................
.............................. CYCLE   31 ..............................
........................................................................

 iter      E             dE          RMSdq      gap      omega  full diag
   1  -5197.5441889 -0.519754E+04  0.770E-03    3.85       0.0  T
   2  -5197.5441913 -0.241348E-05  0.457E-03    3.85       1.0  T
   3  -5197.5441874  0.393464E-05  0.112E-03    3.84       1.4  T
   4  -5197.5441925 -0.514551E-05  0.244E-04    3.84       6.6  T
   5  -5197.5441926 -0.869331E-07  0.176E-04    3.84       9.1  T
   6  -5197.5441927 -0.669479E-07  0.118E-04    3.84      13.6  T
     SCC iter.                  ...       21 min,  7.403 sec
     gradient                   ...        4 min, 30.994 sec
 * total energy  : -5104.0760253 Eh     change    :  -0.4393417E-02 Eh
   gradient norm :     0.0557404 Eh/a0  converged?    E=F G=F D=F
   time step     :     0.4428903 fs     power     :   0.1166871E-06
   step length   :     0.1274447 a0     speed     :   0.6960506E-02

........................................................................
.............................. CYCLE   32 ..............................
........................................................................

 iter      E             dE          RMSdq      gap      omega  full diag
   1  -5197.5882605 -0.519759E+04  0.768E-03    3.84       0.0  T
   2  -5197.5882630 -0.250381E-05  0.458E-03    3.84       1.0  T
   3  -5197.5882597  0.327869E-05  0.100E-03    3.84       1.6  T
   4  -5197.5882639 -0.423753E-05  0.225E-04    3.84       7.2  T
   5  -5197.5882640 -0.833043E-07  0.144E-04    3.84      11.2  T
   6  -5197.5882641 -0.343844E-07  0.964E-05    3.84      16.7  T
     SCC iter.                  ...       21 min, 12.018 sec
     gradient                   ...        4 min, 28.115 sec
 * total energy  : -5104.0808620 Eh     change    :  -0.4836671E-02 Eh
   gradient norm :     0.0560947 Eh/a0  converged?    E=F G=F D=F
   time step     :     0.4871793 fs     power     :   0.1188079E-06
   step length   :     0.1426432 a0     speed     :   0.7082348E-02

........................................................................
.............................. CYCLE   33 ..............................
........................................................................

 iter      E             dE          RMSdq      gap      omega  full diag
   1  -5197.6507637 -0.519765E+04  0.793E-03    3.84       0.0  T
   2  -5197.6507665 -0.275637E-05  0.473E-03    3.84       1.0  T
   3  -5197.6507647  0.172869E-05  0.764E-04    3.84       2.1  T
   4  -5197.6507670 -0.230635E-05  0.231E-04    3.84       7.0  T
   5  -5197.6507672 -0.119124E-06  0.113E-04    3.84      14.3  T
   6  -5197.6507672 -0.123218E-07  0.614E-05    3.84      26.2  T
     SCC iter.                  ...       21 min, 12.066 sec
     gradient                   ...        4 min, 36.543 sec
 * total energy  : -5104.0863622 Eh     change    :  -0.5500195E-02 Eh
   gradient norm :     0.0519440 Eh/a0  converged?    E=F G=F D=F
   time step     :     0.5358972 fs     power     :   0.1232738E-06
   step length   :     0.1604367 a0     speed     :   0.7241646E-02

........................................................................
.............................. CYCLE   34 ..............................
........................................................................

 iter      E             dE          RMSdq      gap      omega  full diag
   1  -5197.7356305 -0.519774E+04  0.865E-03    3.84       0.0  T
   2  -5197.7356347 -0.419885E-05  0.518E-03    3.84       1.0  T
   3  -5197.7356273  0.745853E-05  0.138E-03    3.84       1.2  T
   4  -5197.7356362 -0.891230E-05  0.261E-04    3.84       6.2  T
   5  -5197.7356364 -0.181409E-06  0.119E-04    3.84      13.5  T
   6  -5197.7356364 -0.803448E-08  0.561E-05    3.84      28.7  T
     SCC iter.                  ...       21 min,  7.635 sec
     gradient                   ...        4 min, 35.056 sec
 * total energy  : -5104.0923020 Eh     change    :  -0.5939862E-02 Eh
   gradient norm :     0.0437197 Eh/a0  converged?    E=F G=F D=F
   time step     :     0.5894869 fs     power     :   0.1166349E-06
   step length   :     0.1819931 a0     speed     :   0.7467853E-02

........................................................................
.............................. CYCLE   35 ..............................
........................................................................

 iter      E             dE          RMSdq      gap      omega  full diag
   1  -5197.8501203 -0.519785E+04  0.947E-03    3.85       0.0  T
   2  -5197.8501264 -0.610069E-05  0.574E-03    3.85       1.0  T
   3  -5197.8501078  0.186317E-04  0.213E-03    3.85       1.0  T
   4  -5197.8501303 -0.225108E-04  0.291E-04    3.85       5.5  T
   5  -5197.8501305 -0.196140E-06  0.140E-04    3.85      11.5  T
   6  -5197.8501305 -0.967520E-08  0.638E-05    3.85      25.2  T
     SCC iter.                  ...       21 min, 14.423 sec
     gradient                   ...        4 min, 37.378 sec
 * total energy  : -5104.0980238 Eh     change    :  -0.5721800E-02 Eh
   gradient norm :     0.0412816 Eh/a0  converged?    E=F G=F D=F
   time step     :     0.6484356 fs     power     :   0.9639018E-07
   step length   :     0.2068020 a0     speed     :   0.7714414E-02

........................................................................
.............................. CYCLE   36 ..............................
........................................................................

 iter      E             dE          RMSdq      gap      omega  full diag
   1  -5197.9969461 -0.519800E+04  0.983E-03    3.85       0.0  T
   2  -5197.9969527 -0.654948E-05  0.598E-03    3.85       1.0  T
   3  -5197.9969290  0.237128E-04  0.237E-03    3.85       1.0  T
   4  -5197.9969575 -0.285813E-04  0.285E-04    3.85       5.7  T
   5  -5197.9969577 -0.154010E-06  0.140E-04    3.85      11.5  T
   6  -5197.9969577 -0.770160E-08  0.645E-05    3.85      25.0  T
     SCC iter.                  ...       21 min, 12.305 sec
     gradient                   ...        4 min, 29.375 sec
 * total energy  : -5104.1034273 Eh     change    :  -0.5403437E-02 Eh
   gradient norm :     0.0427077 Eh/a0  converged?    E=F G=F D=F
   time step     :     0.7132792 fs     power     :   0.8244435E-07
   step length   :     0.2315726 a0     speed     :   0.7853131E-02

........................................................................
.............................. CYCLE   37 ..............................
........................................................................

 iter      E             dE          RMSdq      gap      omega  full diag
   1  -5198.1626822 -0.519816E+04  0.102E-02    3.84       0.0  T
   2  -5198.1626907 -0.858685E-05  0.612E-03    3.85       1.0  T
   3  -5198.1626746  0.161332E-04  0.221E-03    3.84       1.0  T
   4  -5198.1626942 -0.196110E-04  0.351E-04    3.85       4.6  T
   5  -5198.1626945 -0.318708E-06  0.148E-04    3.84      10.8  T
   6  -5198.1626946 -0.731052E-08  0.803E-05    3.85      20.0  T
     SCC iter.                  ...       21 min,  9.976 sec
     gradient                   ...        4 min, 33.977 sec
 * total energy  : -5104.1088432 Eh     change    :  -0.5415979E-02 Eh
   gradient norm :     0.0398893 Eh/a0  converged?    E=F G=F D=F
   time step     :     0.7846071 fs     power     :   0.7381375E-07
   step length   :     0.2567184 a0     speed     :   0.7914433E-02

........................................................................
.............................. CYCLE   38 ..............................
........................................................................

 iter      E             dE          RMSdq      gap      omega  full diag
   1  -5198.3107756 -0.519831E+04  0.105E-02    3.84       0.0  T
   2  -5198.3107844 -0.885505E-05  0.618E-03    3.84       1.0  T
   3  -5198.3107765  0.789263E-05  0.178E-03    3.84       1.0  T
   4  -5198.3107863 -0.982884E-05  0.348E-04    3.84       4.6  T
   5  -5198.3107866 -0.285513E-06  0.150E-04    3.84      10.7  T
   6  -5198.3107866 -0.949149E-08  0.834E-05    3.84      19.3  T
     SCC iter.                  ...       21 min,  7.606 sec
     gradient                   ...        4 min, 35.502 sec
 * total energy  : -5104.1142028 Eh     change    :  -0.5359548E-02 Eh
   gradient norm :     0.0423116 Eh/a0  converged?    E=F G=F D=F
   time step     :     0.8630678 fs     power     :   0.6503414E-07
   step length   :     0.2839610 a0     speed     :   0.7958456E-02

........................................................................
.............................. CYCLE   39 ..............................
........................................................................

 iter      E             dE          RMSdq      gap      omega  full diag
   1  -5198.3899350 -0.519839E+04  0.105E-02    3.84       0.0  T
   2  -5198.3899392 -0.425173E-05  0.620E-03    3.84       1.0  T
   3  -5198.3899337  0.557258E-05  0.132E-03    3.84       1.2  T
   4  -5198.3899406 -0.693493E-05  0.261E-04    3.84       6.2  T
   5  -5198.3899407 -0.119371E-06  0.138E-04    3.84      11.7  T
   6  -5198.3899407 -0.117952E-07  0.641E-05    3.84      25.1  T
     SCC iter.                  ...       21 min,  8.394 sec
     gradient                   ...        4 min, 36.023 sec
 * total energy  : -5104.1201195 Eh     change    :  -0.5916743E-02 Eh
   gradient norm :     0.0418154 Eh/a0  converged?    E=F G=F D=F
   time step     :     0.9493746 fs     power     :   0.6869242E-07
   step length   :     0.3128226 a0     speed     :   0.7970318E-02

........................................................................
.............................. CYCLE   40 ..............................
........................................................................

 iter      E             dE          RMSdq      gap      omega  full diag
   1  -5198.3660288 -0.519837E+04  0.108E-02    3.85       0.0  T
   2  -5198.3660374 -0.858355E-05  0.654E-03    3.85       1.0  T
   3  -5198.3660234  0.139467E-04  0.196E-03    3.85       1.0  T
   4  -5198.3660407 -0.172667E-04  0.369E-04    3.85       4.4  T
   5  -5198.3660410 -0.272462E-06  0.231E-04    3.85       6.9  T
   6  -5198.3660410 -0.597374E-07  0.151E-04    3.85      10.6  T
     SCC iter.                  ...       21 min,  7.637 sec
     gradient                   ...        4 min, 29.284 sec
 * total energy  : -5104.1268391 Eh     change    :  -0.6719602E-02 Eh
   gradient norm :     0.0390743 Eh/a0  converged?    E=F G=F D=F
   time step     :     1.0443120 fs     power     :   0.6939219E-07
   step length   :     0.3480805 a0     speed     :   0.8062402E-02

........................................................................
.............................. CYCLE   41 ..............................
........................................................................

 iter      E             dE          RMSdq      gap      omega  full diag
   1  -5198.2608971 -0.519826E+04  0.122E-02    3.84       0.0  T
   2  -5198.2609134 -0.163081E-04  0.733E-03    3.84       1.0  T
   3  -5198.2608999  0.135355E-04  0.216E-03    3.84       1.0  T
   4  -5198.2609169 -0.170423E-04  0.528E-04    3.84       3.0  T
   5  -5198.2609177 -0.769995E-06  0.264E-04    3.84       6.1  T
   6  -5198.2609178 -0.642549E-07  0.171E-04    3.84       9.4  T
     SCC iter.                  ...       21 min, 10.423 sec
     gradient                   ...        4 min, 32.830 sec
 * total energy  : -5104.1338674 Eh     change    :  -0.7028278E-02 Eh
   gradient norm :     0.0358436 Eh/a0  converged?    E=F G=F D=F
   time step     :     1.1487432 fs     power     :   0.6215775E-07
   step length   :     0.3897657 a0     speed     :   0.8207215E-02

........................................................................
.............................. CYCLE   42 ..............................
........................................................................

 iter      E             dE          RMSdq      gap      omega  full diag
   1  -5198.1536119 -0.519815E+04  0.135E-02    3.84       0.0  T
   2  -5198.1536210 -0.912116E-05  0.803E-03    3.84       1.0  T
   3  -5198.1536032  0.178242E-04  0.250E-03    3.84       1.0  T
   4  -5198.1536251 -0.218527E-04  0.377E-04    3.84       4.3  T
   5  -5198.1536253 -0.202538E-06  0.201E-04    3.84       8.0  T
   6  -5198.1536253 -0.223663E-07  0.958E-05    3.84      16.8  T
     SCC iter.                  ...       21 min,  9.734 sec
     gradient                   ...        4 min, 29.431 sec
 * total energy  : -5104.1407122 Eh     change    :  -0.6844788E-02 Eh
   gradient norm :     0.0368707 Eh/a0  converged?    E=F G=F D=F
   time step     :     1.2500000 fs     power     :   0.5467969E-07
   step length   :     0.4299933 a0     speed     :   0.8320832E-02
 * RMSD in coord.:     0.0553141 a0     energy gain  -0.1039742E+00 Eh

........................................................................
.............................. CYCLE   43 ..............................
........................................................................

 iter      E             dE          RMSdq      gap      omega  full diag
   1  -5198.1407547 -0.519814E+04  0.231E-03    3.84       0.0  T
   2  -5198.1407550 -0.313632E-06  0.140E-03    3.84       1.1  T
   3  -5198.1407538  0.120227E-05  0.550E-04    3.84       2.9  T
   4  -5198.1407553 -0.145043E-05  0.695E-05    3.84      23.1  T
   5  -5198.1407553 -0.887121E-08  0.411E-05    3.84      39.2  T
   6  -5198.1407553 -0.221735E-08  0.231E-05    3.84      69.5  T
     SCC iter.                  ...       21 min, 14.586 sec
     gradient                   ...        4 min, 29.726 sec
 * total energy  : -5104.1419918 Eh     change    :  -0.1279631E-02 Eh
   gradient norm :     0.0361126 Eh/a0  converged?    E=F G=F D=F
   time step     :     0.2500000 fs     power     :   0.6555819E-07
   step length   :     0.0815324 a0     speed     :   0.7888696E-02

........................................................................
.............................. CYCLE   44 ..............................
........................................................................

 iter      E             dE          RMSdq      gap      omega  full diag
   1  -5198.1365937 -0.519814E+04  0.229E-03    3.84       0.0  T
   2  -5198.1365943 -0.560229E-06  0.143E-03    3.84       1.1  T
   3  -5198.1365928  0.151483E-05  0.642E-04    3.84       2.5  T
   4  -5198.1365947 -0.196787E-05  0.775E-05    3.84      20.8  T
   5  -5198.1365947 -0.158825E-07  0.356E-05    3.84      45.2  T
   6  -5198.1365947 -0.846740E-09  0.187E-05    3.84      85.8  T
     SCC iter.                  ...       21 min, 10.799 sec
     gradient                   ...        4 min, 31.144 sec
 * total energy  : -5104.1434154 Eh     change    :  -0.1423529E-02 Eh
   gradient norm :     0.0325703 Eh/a0  converged?    E=F G=F D=F
   time step     :     0.2500000 fs     power     :   0.7241578E-07
   step length   :     0.0782444 a0     speed     :   0.7570564E-02

........................................................................
.............................. CYCLE   45 ..............................
........................................................................

 iter      E             dE          RMSdq      gap      omega  full diag
   1  -5198.1412023 -0.519814E+04  0.249E-03    3.84       0.0  T
   2  -5198.1412031 -0.856806E-06  0.157E-03    3.84       1.0  T
   3  -5198.1412014  0.173990E-05  0.729E-04    3.84       2.2  T
   4  -5198.1412038 -0.240364E-05  0.932E-05    3.84      17.3  T
   5  -5198.1412038 -0.235241E-07  0.419E-05    3.84      38.4  T
   6  -5198.1412038 -0.130331E-08  0.229E-05    3.84      70.1  T
     SCC iter.                  ...       21 min,  5.699 sec
     gradient                   ...        4 min, 34.296 sec
 * total energy  : -5104.1448739 Eh     change    :  -0.1458485E-02 Eh
   gradient norm :     0.0284353 Eh/a0  converged?    E=F G=F D=F
   time step     :     0.2500000 fs     power     :   0.7280506E-07
   step length   :     0.0760761 a0     speed     :   0.7360767E-02

........................................................................
.............................. CYCLE   46 ..............................
........................................................................

 iter      E             dE          RMSdq      gap      omega  full diag
   1  -5198.1546823 -0.519815E+04  0.268E-03    3.84       0.0  T
   2  -5198.1546833 -0.914204E-06  0.168E-03    3.84       1.0  T
   3  -5198.1546812  0.205011E-05  0.766E-04    3.84       2.1  T
   4  -5198.1546839 -0.273546E-05  0.976E-05    3.84      16.5  T
   5  -5198.1546840 -0.236596E-07  0.471E-05    3.84      34.2  T
   6  -5198.1546840 -0.157252E-08  0.259E-05    3.84      62.2  T
     SCC iter.                  ...       21 min,  7.776 sec
     gradient                   ...        4 min, 34.389 sec
 * total energy  : -5104.1462717 Eh     change    :  -0.1397871E-02 Eh
   gradient norm :     0.0261935 Eh/a0  converged?    E=F G=F D=F
   time step     :     0.2500000 fs     power     :   0.6885010E-07
   step length   :     0.0746938 a0     speed     :   0.7227029E-02

........................................................................
.............................. CYCLE   47 ..............................
........................................................................

 iter      E             dE          RMSdq      gap      omega  full diag
   1  -5198.1764335 -0.519818E+04  0.274E-03    3.85       0.0  T
   2  -5198.1764342 -0.673833E-06  0.168E-03    3.85       1.0  T
   3  -5198.1764322  0.195261E-05  0.699E-04    3.85       2.3  T
   4  -5198.1764346 -0.242396E-05  0.897E-05    3.85      17.9  T
   5  -5198.1764346 -0.173477E-07  0.464E-05    3.85      34.7  T
   6  -5198.1764346 -0.137152E-08  0.249E-05    3.85      64.7  T
     SCC iter.                  ...       21 min, 10.631 sec
     gradient                   ...        4 min, 34.385 sec
 * total energy  : -5104.1475858 Eh     change    :  -0.1314077E-02 Eh
   gradient norm :     0.0262570 Eh/a0  converged?    E=F G=F D=F
   time step     :     0.2500000 fs     power     :   0.6499823E-07
   step length   :     0.0735040 a0     speed     :   0.7111907E-02

........................................................................
.............................. CYCLE   48 ..............................
........................................................................

 iter      E             dE          RMSdq      gap      omega  full diag
   1  -5198.2077555 -0.519821E+04  0.294E-03    3.85       0.0  T
   2  -5198.2077560 -0.452728E-06  0.176E-03    3.85       1.0  T
   3  -5198.2077547  0.129379E-05  0.566E-04    3.85       2.8  T
   4  -5198.2077562 -0.154510E-05  0.846E-05    3.85      19.0  T
   5  -5198.2077562 -0.140153E-07  0.449E-05    3.85      35.8  T
   6  -5198.2077562 -0.111413E-08  0.214E-05    3.85      75.1  T
     SCC iter.                  ...       21 min, 13.107 sec
     gradient                   ...        4 min, 34.970 sec
 * total energy  : -5104.1489775 Eh     change    :  -0.1391694E-02 Eh
   gradient norm :     0.0269175 Eh/a0  converged?    E=F G=F D=F
   time step     :     0.2750000 fs     power     :   0.6320720E-07
   step length   :     0.0794533 a0     speed     :   0.6988668E-02

........................................................................
.............................. CYCLE   49 ..............................
........................................................................

 iter      E             dE          RMSdq      gap      omega  full diag
   1  -5198.2476378 -0.519825E+04  0.310E-03    3.84       0.0  T
   2  -5198.2476381 -0.330014E-06  0.183E-03    3.85       1.0  T
   3  -5198.2476376  0.482577E-06  0.415E-04    3.85       3.9  T
   4  -5198.2476383 -0.611374E-06  0.752E-05    3.85      21.4  T
     SCC iter.                  ...       14 min, 11.964 sec
     gradient                   ...        4 min, 33.097 sec
 * total energy  : -5104.1504933 Eh     change    :  -0.1515797E-02 Eh
   gradient norm :     0.0266071 Eh/a0  converged?    E=F G=F D=F
   time step     :     0.3025000 fs     power     :   0.6310162E-07
   step length   :     0.0858983 a0     speed     :   0.6868699E-02

........................................................................
.............................. CYCLE   50 ..............................
........................................................................

 iter      E             dE          RMSdq      gap      omega  full diag
   1  -5198.2941520 -0.519829E+04  0.328E-03    3.84       0.0  T
   2  -5198.2941524 -0.395617E-06  0.195E-03    3.84       1.0  T
   3  -5198.2941515  0.865645E-06  0.504E-04    3.84       3.2  T
   4  -5198.2941526 -0.106057E-05  0.750E-05    3.84      21.5  T
   5  -5198.2941526 -0.619730E-08  0.422E-05    3.84      38.1  T
     SCC iter.                  ...       17 min, 37.838 sec
     gradient                   ...        4 min, 30.214 sec
 * total energy  : -5104.1521516 Eh     change    :  -0.1658327E-02 Eh
   gradient norm :     0.0249390 Eh/a0  converged?    E=F G=F D=F
   time step     :     0.3327500 fs     power     :   0.6257591E-07
   step length   :     0.0932638 a0     speed     :   0.6779693E-02

........................................................................
.............................. CYCLE   51 ..............................
........................................................................

 iter      E             dE          RMSdq      gap      omega  full diag
   1  -5198.3439772 -0.519834E+04  0.350E-03    3.84       0.0  T
   2  -5198.3439777 -0.567584E-06  0.210E-03    3.84       1.0  T
   3  -5198.3439762  0.153887E-05  0.612E-04    3.85       2.6  T
   4  -5198.3439780 -0.184895E-05  0.891E-05    3.84      18.1  T
   5  -5198.3439781 -0.125601E-07  0.483E-05    3.85      33.3  T
   6  -5198.3439781 -0.972250E-09  0.213E-05    3.85      75.4  T
     SCC iter.                  ...       21 min,  9.057 sec
     gradient                   ...        4 min, 32.060 sec
 * total energy  : -5104.1539204 Eh     change    :  -0.1768795E-02 Eh
   gradient norm :     0.0226674 Eh/a0  converged?    E=F G=F D=F
   time step     :     0.3660250 fs     power     :   0.5990123E-07
   step length   :     0.1019237 a0     speed     :   0.6735653E-02

........................................................................
.............................. CYCLE   52 ..............................
........................................................................

 iter      E             dE          RMSdq      gap      omega  full diag
   1  -5198.3916736 -0.519839E+04  0.373E-03    3.85       0.0  T
   2  -5198.3916742 -0.666046E-06  0.223E-03    3.85       1.0  T
   3  -5198.3916730  0.123708E-05  0.573E-04    3.85       2.8  T
   4  -5198.3916745 -0.151157E-05  0.105E-04    3.85      15.3  T
   5  -5198.3916745 -0.212640E-07  0.550E-05    3.85      29.2  T
   6  -5198.3916745 -0.120235E-08  0.243E-05    3.85      66.2  T
     SCC iter.                  ...       21 min, 12.915 sec
     gradient                   ...        4 min, 27.716 sec
 * total energy  : -5104.1557408 Eh     change    :  -0.1820406E-02 Eh
   gradient norm :     0.0213530 Eh/a0  converged?    E=F G=F D=F
   time step     :     0.4026275 fs     power     :   0.5520885E-07
   step length   :     0.1119543 a0     speed     :   0.6725933E-02

........................................................................
.............................. CYCLE   53 ..............................
........................................................................

 iter      E             dE          RMSdq      gap      omega  full diag
   1  -5198.4299827 -0.519843E+04  0.390E-03    3.85       0.0  T
   2  -5198.4299835 -0.749945E-06  0.231E-03    3.85       1.0  T
   3  -5198.4299824  0.105847E-05  0.592E-04    3.85       2.7  T
   4  -5198.4299838 -0.133813E-05  0.107E-04    3.85      15.0  T
   5  -5198.4299838 -0.200407E-07  0.619E-05    3.85      26.0  T
   6  -5198.4299838 -0.267937E-08  0.290E-05    3.85      55.5  T
     SCC iter.                  ...       21 min, 10.240 sec
     gradient                   ...        4 min, 31.161 sec
 * total energy  : -5104.1575938 Eh     change    :  -0.1853006E-02 Eh
   gradient norm :     0.0221624 Eh/a0  converged?    E=F G=F D=F
   time step     :     0.4428903 fs     power     :   0.5106345E-07
   step length   :     0.1229042 a0     speed     :   0.6712523E-02

........................................................................
.............................. CYCLE   54 ..............................
........................................................................

 iter      E             dE          RMSdq      gap      omega  full diag
   1  -5198.4528519 -0.519845E+04  0.404E-03    3.85       0.0  T
   2  -5198.4528528 -0.939084E-06  0.241E-03    3.85       1.0  T
   3  -5198.4528498  0.306794E-05  0.885E-04    3.85       1.8  T
   4  -5198.4528535 -0.371065E-05  0.114E-04    3.85      14.1  T
   5  -5198.4528535 -0.228138E-07  0.689E-05    3.85      23.4  T
   6  -5198.4528535 -0.407726E-08  0.369E-05    3.85      43.6  T
     SCC iter.                  ...       21 min,  9.808 sec
     gradient                   ...        4 min, 31.046 sec
 * total energy  : -5104.1595590 Eh     change    :  -0.1965153E-02 Eh
   gradient norm :     0.0231772 Eh/a0  converged?    E=F G=F D=F
   time step     :     0.4871793 fs     power     :   0.5014841E-07
   step length   :     0.1342251 a0     speed     :   0.6664385E-02

........................................................................
.............................. CYCLE   55 ..............................
........................................................................

 iter      E             dE          RMSdq      gap      omega  full diag
   1  -5198.4575912 -0.519846E+04  0.428E-03    3.85       0.0  T
   2  -5198.4575923 -0.114629E-05  0.256E-03    3.85       1.0  T
   3  -5198.4575879  0.445555E-05  0.105E-03    3.85       1.5  T
   4  -5198.4575932 -0.537815E-05  0.113E-04    3.85      14.2  T
   5  -5198.4575932 -0.182672E-07  0.683E-05    3.85      23.6  T
   6  -5198.4575932 -0.330419E-08  0.365E-05    3.85      44.0  T
     SCC iter.                  ...       21 min,  7.758 sec
     gradient                   ...        4 min, 31.564 sec
 * total energy  : -5104.1617314 Eh     change    :  -0.2172470E-02 Eh
   gradient norm :     0.0215544 Eh/a0  converged?    E=F G=F D=F
   time step     :     0.5358972 fs     power     :   0.5061442E-07
   step length   :     0.1466131 a0     speed     :   0.6617692E-02

........................................................................
.............................. CYCLE   56 ..............................
........................................................................

 iter      E             dE          RMSdq      gap      omega  full diag
   1  -5198.4444422 -0.519844E+04  0.465E-03    3.85       0.0  T
   2  -5198.4444434 -0.122526E-05  0.277E-03    3.85       1.0  T
   3  -5198.4444401  0.336615E-05  0.980E-04    3.85       1.6  T
   4  -5198.4444441 -0.403468E-05  0.126E-04    3.85      12.8  T
   5  -5198.4444441 -0.294231E-07  0.661E-05    3.85      24.3  T
   6  -5198.4444441 -0.159707E-08  0.292E-05    3.85      55.0  T
     SCC iter.                  ...       21 min, 12.172 sec
     gradient                   ...        4 min, 31.783 sec
 * total energy  : -5104.1640544 Eh     change    :  -0.2322934E-02 Eh
   gradient norm :     0.0188823 Eh/a0  converged?    E=F G=F D=F
   time step     :     0.5894869 fs     power     :   0.4798946E-07
   step length   :     0.1614279 a0     speed     :   0.6623986E-02

........................................................................
.............................. CYCLE   57 ..............................
........................................................................

 iter      E             dE          RMSdq      gap      omega  full diag
   1  -5198.4173428 -0.519842E+04  0.499E-03    3.85       0.0  T
   2  -5198.4173439 -0.101960E-05  0.297E-03    3.85       1.0  T
   3  -5198.4173421  0.173409E-05  0.770E-04    3.85       2.1  T
   4  -5198.4173443 -0.214295E-05  0.121E-04    3.85      13.3  T
   5  -5198.4173443 -0.168266E-07  0.688E-05    3.85      23.4  T
   6  -5198.4173443 -0.264754E-08  0.324E-05    3.85      49.6  T
     SCC iter.                  ...       21 min,  6.601 sec
     gradient                   ...        4 min, 37.277 sec
 * total energy  : -5104.1664049 Eh     change    :  -0.2350518E-02 Eh
   gradient norm :     0.0189820 Eh/a0  converged?    E=F G=F D=F
[...]
  3615   6 C     3616   6 C                                       1.5388431
  3617   6 C     3618   6 C                                       1.3888889
  3618   6 C     3619   6 C                                       1.3842986
  3619   6 C     3620   6 C                                       1.3835694
  3620   6 C     3621   6 C                                       1.3851268
  3617   6 C     3622   6 C                                       1.3905906
  3621   6 C     3622   6 C                                       1.3825626
  3616   6 C     3623   6 C                                       1.5403539
  3623   6 C     3624   6 C                                       1.5382774
  3625   6 C     3626   6 C                                       1.3907455
  3626   6 C     3627   6 C                                       1.3828365
  3627   6 C     3628   6 C                                       1.3844136
  3628   6 C     3629   6 C                                       1.3835913
  3625   6 C     3630   6 C                                       1.3892809
  3629   6 C     3630   6 C                                       1.3842320
  3624   6 C     3631   6 C                                       1.5384588
  3633   6 C     3634   6 C                                       1.3898894
  3634   6 C     3635   6 C                                       1.3849323
  3635   6 C     3636   6 C                                       1.3842146
  3636   6 C     3637   6 C                                       1.3848377
  3633   6 C     3638   6 C                                       1.3914152
  3637   6 C     3638   6 C                                       1.3821845
  3632   6 C     3639   6 C                                       1.5353236
  3639   6 C     3640   6 C                                       1.5380298
  3641   6 C     3642   6 C                                       1.3891102
  3642   6 C     3643   6 C                                       1.3836296
  3643   6 C     3644   6 C                                       1.3837321
  3644   6 C     3645   6 C                                       1.3842814
  3641   6 C     3646   6 C                                       1.3901490
  3645   6 C     3646   6 C                                       1.3831690
  3640   6 C     3647   6 C                                       1.5312423
  3647   6 C     3648   6 C                                       1.5307979
  3649   6 C     3650   6 C                                       1.3906505
  3650   6 C     3651   6 C                                       1.3826087
  3651   6 C     3652   6 C                                       1.3849957
  3652   6 C     3653   6 C                                       1.3842644
  3649   6 C     3654   6 C                                       1.3888587
  3653   6 C     3654   6 C                                       1.3838588
  3648   6 C     3655   6 C                                       1.5386569
  3655   6 C     3656   6 C                                       1.5333023
  3657   6 C     3658   6 C                                       1.3915782
  3658   6 C     3659   6 C                                       1.3825199
  3659   6 C     3660   6 C                                       1.3852119
  3660   6 C     3661   6 C                                       1.3840224
  3657   6 C     3662   6 C                                       1.3892015
  3661   6 C     3662   6 C                                       1.3836929
  3663   6 C     3664   6 C                                       1.5361855
  3665   6 C     3666   6 C                                       1.3908495
  3666   6 C     3667   6 C                                       1.3808816
  3667   6 C     3668   6 C                                       1.3836729
  3668   6 C     3669   6 C                                       1.3819801
  3665   6 C     3670   6 C                                       1.3876798
  3669   6 C     3670   6 C                                       1.3842985
  3664   6 C     3671   6 C                                       1.5274494
  3671   6 C     3672   6 C                                       1.5348018
  3673   6 C     3674   6 C                                       1.3900363
  3674   6 C     3675   6 C                                       1.3834792
  3675   6 C     3676   6 C                                       1.3833637
  3676   6 C     3677   6 C                                       1.3843620
  3673   6 C     3678   6 C                                       1.3903510
  3677   6 C     3678   6 C                                       1.3825871
  3672   6 C     3679   6 C                                       1.5319458
  3679   6 C     3680   6 C                                       1.5347920
  3681   6 C     3682   6 C                                       1.3895104
  3682   6 C     3683   6 C                                       1.3835168
  3683   6 C     3684   6 C                                       1.3840564
  3684   6 C     3685   6 C                                       1.3835870
  3681   6 C     3686   6 C                                       1.3901702
  3685   6 C     3686   6 C                                       1.3832809
  3680   6 C     3687   6 C                                       1.5333771
  3687   6 C     3688   6 C                                       1.5353829
  3549   6 C     3689   1 H                                       1.0961192
  3551   6 C     3690   1 H                                       1.0919508
  3551   6 C     3691   1 H                                       1.0910330
  3552   6 C     3692   1 H                                       1.0953448
  3559   6 C     3693   1 H                                       1.0928835
  3559   6 C     3694   1 H                                       1.0918467
  3560   6 C     3695   1 H                                       1.0945852
  3567   6 C     3696   1 H                                       1.0910464
  3567   6 C     3697   1 H                                       1.0915972
  3568   6 C     3698   1 H                                       1.0962176
  3575   6 C     3699   1 H                                       1.0909236
  3576   6 C     3700   1 H                                       1.0964518
  3583   6 C     3701   1 H                                       1.0927752
  3583   6 C     3702   1 H                                       1.0908415
  3584   6 C     3703   1 H                                       1.0955543
  3591   6 C     3704   1 H                                       1.0921950
  3591   6 C     3705   1 H                                       1.0917925
  3592   6 C     3706   1 H                                       1.0930459
  3599   6 C     3707   1 H                                       1.0897097
  3599   6 C     3708   1 H                                       1.0914694
  3600   6 C     3709   1 H                                       1.0952424
  3608   6 C     3710   1 H                                       1.0929196
  3615   6 C     3711   1 H                                       1.0925752
  3615   6 C     3712   1 H                                       1.0922636
  3616   6 C     3713   1 H                                       1.0923441
  3623   6 C     3714   1 H                                       1.0920915
  3623   6 C     3715   1 H                                       1.0904966
  3624   6 C     3716   1 H                                       1.0961518
  3631   6 C     3717   1 H                                       1.0911771
  3631   6 C     3718   1 H                                       1.0913898
  3632   6 C     3719   1 H                                       1.0954143
  3639   6 C     3720   1 H                                       1.0921342
  3639   6 C     3721   1 H                                       1.0912752
  3640   6 C     3722   1 H                                       1.0965526
  3647   6 C     3723   1 H                                       1.0897366
  3647   6 C     3724   1 H                                       1.0888188
  3648   6 C     3725   1 H                                       1.0959949
  3655   6 C     3726   1 H                                       1.0909862
  3655   6 C     3727   1 H                                       1.0917266
  3656   6 C     3728   1 H                                       1.0956873
  3663   6 C     3729   1 H                                       1.0915582
  3663   6 C     3730   1 H                                       1.0913157
  3664   6 C     3731   1 H                                       1.0953745
  3671   6 C     3732   1 H                                       1.0913199
  3671   6 C     3733   1 H                                       1.0907569
  3672   6 C     3734   1 H                                       1.0949965
  3679   6 C     3735   1 H                                       1.0920567
  3679   6 C     3736   1 H                                       1.0932225
  3543   6 C     3737   1 H                                       1.0815398
  3548   6 C     3738   1 H                                       1.0810217
  3547   6 C     3739   1 H                                       1.0805164
  3546   6 C     3740   1 H                                       1.0807445
  3545   6 C     3741   1 H                                       1.0801904
  3554   6 C     3742   1 H                                       1.0811451
  3555   6 C     3743   1 H                                       1.0815987
  3556   6 C     3744   1 H                                       1.0810554
  3557   6 C     3745   1 H                                       1.0807581
  3558   6 C     3746   1 H                                       1.0813102
  3562   6 C     3747   1 H                                       1.0819629
  3563   6 C     3748   1 H                                       1.0812564
  3564   6 C     3749   1 H                                       1.0807456
  3565   6 C     3750   1 H                                       1.0798199
  3566   6 C     3751   1 H                                       1.0796766
  3570   6 C     3752   1 H                                       1.0811342
  3571   6 C     3753   1 H                                       1.0813254
  3572   6 C     3754   1 H                                       1.0808800
  3573   6 C     3755   1 H                                       1.0813066
  3574   6 C     3756   1 H                                       1.0807546
  3575   6 C     3757   1 H                                       1.0908245
  3578   6 C     3758   1 H                                       1.0791048
  3579   6 C     3759   1 H                                       1.0801650
  3580   6 C     3760   1 H                                       1.0805515
  3581   6 C     3761   1 H                                       1.0817082
  3582   6 C     3762   1 H                                       1.0821975
  3586   6 C     3763   1 H                                       1.0803862
  3587   6 C     3764   1 H                                       1.0814433
  3588   6 C     3765   1 H                                       1.0809391
  3589   6 C     3766   1 H                                       1.0804486
  3590   6 C     3767   1 H                                       1.0816219
  3594   6 C     3768   1 H                                       1.0818448
  3595   6 C     3769   1 H                                       1.0802295
  3596   6 C     3770   1 H                                       1.0815438
  3597   6 C     3771   1 H                                       1.0801788
  3598   6 C     3772   1 H                                       1.0801956
  3602   6 C     3773   1 H                                       1.0816089
  3603   6 C     3774   1 H                                       1.0808678
  3604   6 C     3775   1 H                                       1.0806359
  3605   6 C     3776   1 H                                       1.0807083
  3606   6 C     3777   1 H                                       1.0804429
  3607   6 C     3778   1 H                                       1.0912037
  3607   6 C     3779   1 H                                       1.0921838
  3610   6 C     3780   1 H                                       1.0798077
  3611   6 C     3781   1 H                                       1.0809183
  3612   6 C     3782   1 H                                       1.0805677
  3613   6 C     3783   1 H                                       1.0804310
  3614   6 C     3784   1 H                                       1.0811823
  3618   6 C     3785   1 H                                       1.0813477
  3619   6 C     3786   1 H                                       1.0806548
  3620   6 C     3787   1 H                                       1.0802344
  3621   6 C     3788   1 H                                       1.0806712
  3622   6 C     3789   1 H                                       1.0802511
  3626   6 C     3790   1 H                                       1.0786213
  3627   6 C     3791   1 H                                       1.0806743
  3628   6 C     3792   1 H                                       1.0802683
  3629   6 C     3793   1 H                                       1.0809957
  3630   6 C     3794   1 H                                       1.0817661
  3634   6 C     3795   1 H                                       1.0818909
  3635   6 C     3796   1 H                                       1.0814249
  3636   6 C     3797   1 H                                       1.0806794
  3637   6 C     3798   1 H                                       1.0799993
  3638   6 C     3799   1 H                                       1.0775520
  3642   6 C     3800   1 H                                       1.0818512
  3643   6 C     3801   1 H                                       1.0811844
  3644   6 C     3802   1 H                                       1.0810245
  3645   6 C     3803   1 H                                       1.0799179
  3646   6 C     3804   1 H                                       1.0800398
  3650   6 C     3805   1 H                                       1.0804189
  3651   6 C     3806   1 H                                       1.0815540
  3652   6 C     3807   1 H                                       1.0812800
  3653   6 C     3808   1 H                                       1.0814821
  3654   6 C     3809   1 H                                       1.0813288
  3658   6 C     3810   1 H                                       1.0792098
  3659   6 C     3811   1 H                                       1.0815882
  3660   6 C     3812   1 H                                       1.0819598
  3661   6 C     3813   1 H                                       1.0807348
  3662   6 C     3814   1 H                                       1.0805213
  3666   6 C     3815   1 H                                       1.0808486
  3667   6 C     3816   1 H                                       1.0812564
  3668   6 C     3817   1 H                                       1.0780708
  3669   6 C     3818   1 H                                       1.0801448
  3670   6 C     3819   1 H                                       1.0801685
  3674   6 C     3820   1 H                                       1.0806476
  3675   6 C     3821   1 H                                       1.0810140
  3676   6 C     3822   1 H                                       1.0806379
  3677   6 C     3823   1 H                                       1.0804937
  3678   6 C     3824   1 H                                       1.0813983
  3686   6 C     3825   1 H                                       1.0806600
  3685   6 C     3826   1 H                                       1.0802388
  3684   6 C     3827   1 H                                       1.0804632
  3683   6 C     3828   1 H                                       1.0803730
  3682   6 C     3829   1 H                                       1.0820130
  3550   6 C     3830   1 H                                       1.0880930
  3550   6 C     3831   1 H                                       1.0879696
  3550   6 C     3832   1 H                                       1.0879172
  3680   6 C     3833   1 H                                       1.0967396
  3687   6 C     3834   1 H                                       1.0930338
  3687   6 C     3835   1 H                                       1.0907162
  3688   6 C     3836   6 C                                       1.5375793
  3837   6 C     3838   6 C                                       1.3899854
  3838   6 C     3839   6 C                                       1.3834939
  3839   6 C     3840   6 C                                       1.3846930
  3840   6 C     3841   6 C                                       1.3837770
  3837   6 C     3842   6 C                                       1.3893842
  3841   6 C     3842   6 C                                       1.3830587
  3838   6 C     3843   1 H                                       1.0804249
  3839   6 C     3844   1 H                                       1.0812839
  3840   6 C     3845   1 H                                       1.0807697
  3841   6 C     3846   1 H                                       1.0806837
  3842   6 C     3847   1 H                                       1.0799445
  3836   6 C     3848   6 C                                       1.5340287
  3836   6 C     3849   1 H                                       1.0930768
  3836   6 C     3850   1 H                                       1.0922954
  3851   6 C     3852   6 C                                       1.3894991
  3852   6 C     3853   6 C                                       1.3839977
  3853   6 C     3854   6 C                                       1.3850641
  3854   6 C     3855   6 C                                       1.3847860
  3851   6 C     3856   6 C                                       1.3896260
  3855   6 C     3856   6 C                                       1.3832789
  3852   6 C     3857   1 H                                       1.0818351
  3853   6 C     3858   1 H                                       1.0811302
  3854   6 C     3859   1 H                                       1.0809374
  3855   6 C     3860   1 H                                       1.0818569
  3856   6 C     3861   1 H                                       1.0797698
  3688   6 C     3862   1 H                                       1.0956700
  3848   6 C     3863   1 H                                       1.0908224
  3848   6 C     3864   1 H                                       1.0914927

 * 2 distinct bonds (by element types)

   Z      Z             #   av. dist./Å        max./Å        min./Å
   1 H    6 C        1944     1.0852695     1.0979392     1.0772664
   6 C    6 C        1858     1.4194591     1.5408157     1.3808816


optimized geometry written to: xtbopt.xyz


           -------------------------------------------------
          | TOTAL ENERGY            -5104.247542366475 Eh   |
          | GRADIENT NORM               0.000820301791 Eh/α |
          | HOMO-LUMO GAP               3.807528353836 eV   |
           -------------------------------------------------

------------------------------------------------------------------------
 * finished run on 2024/07/20 at 06:12:36.630     
------------------------------------------------------------------------
 total:
 * wall-time:     7 d, 21 h, 42 min,  1.259 sec
 *  cpu-time:    52 d, 14 h, 22 min, 56.060 sec
 * ratio c/w:     6.655 speedup
 SCF:
 * wall-time:     0 d,  0 h, 16 min,  0.369 sec
 *  cpu-time:     0 d,  1 h, 44 min, 49.336 sec
 * ratio c/w:     6.549 speedup
 ANC optimizer:
 * wall-time:     7 d, 21 h, 24 min, 50.207 sec
 *  cpu-time:    52 d, 12 h, 36 min, 34.820 sec
 * ratio c/w:     6.655 speedup

