3864
 energy: -5104.246375892314 gnorm: 0.000972422885 xtb: 6.6.1 (8d0f1dd)
C           66.65713040392872       43.18944010633262       52.96434626147094
C           65.58435115388147       43.25460475799238       53.84337397398107
C           65.74950206221341       42.74043772365430       55.12488747733707
C           66.95374421376125       42.18929438744494       55.52159258624558
C           68.01591284808666       42.12968085836278       54.63464860607612
C           67.86183136431821       42.62723304589380       53.35241411506615
C           64.28291472380053       43.88939050274691       53.42086070924807
C           63.15898405632290       42.85224020638486       53.40873379320518
C           63.95986419598047       45.06460918660008       54.35798970663742
C           62.89778949029081       46.03805341491561       53.81116221921388
C           61.83037499085609       46.32614876076665       54.84047052141078
C           60.48986767671820       46.11555985447017       54.54507227947246
C           59.50608545378932       46.37619485093617       55.48288911199300
C           59.84915532159246       46.85722775376865       56.73310081714894
C           61.18241226632586       47.07953722601984       57.03567475000993
C           62.16446267831141       46.81668679062280       56.09822826543326
C           63.52074458869441       47.37076021572958       53.36387728527401
C           64.27768340352233       47.30789263909178       52.02794627355008
C           65.18042133381233       48.50781755647515       51.89189263326533
C           66.54350535661088       48.34121419317671       51.68704054324895
C           67.38151860712850       49.43440085850296       51.55592903809932
C           66.86770328915023       50.71691448821429       51.63851964375748
C           65.51098258449716       50.89708410208394       51.84420460243614
C           64.67709444349744       49.80132399100120       51.96526835571331
C           63.29491171286620       47.24562021787649       50.85331936794854
C           63.97313195548076       47.08404876611795       49.48622809296977
C           64.79037091155453       45.81940752907461       49.41805430788095
C           66.14408139104511       45.87129835628701       49.11083855881532
C           66.90400766267018       44.71617421048021       49.03946490428753
C           66.32055222691729       43.48397109119865       49.28094820879527
C           64.97004019206084       43.41794160730310       49.58182089805639
C           64.21244733665546       44.57334958956420       49.64033064757574
C           62.90652694804070       47.10782669696786       48.36920827468745
C           62.94293618132735       48.38006403432214       47.50997586453846
C           62.90978800588626       49.63188814269349       48.34850020827191
C           61.84253218955256       49.90180942768232       49.19608549517960
C           61.79832224706580       51.07213954298404       49.93159934483489
C           62.82685719524112       51.99433581727085       49.84039487073099
C           63.89915764561143       51.73337231194050       49.00531128819859
C           63.93663589573853       50.56393579815625       48.26598452179167
C           61.76369577845876       48.38404332883832       46.51992650277735
C           62.03264330592579       47.49209515622887       45.30046504585113
C           60.77173582829440       46.90576042623780       44.71691151013711
C           60.76581906599864       45.61384284972971       44.20234540070573
C           59.63401444534806       45.09135515000069       43.60117342382088
C           58.47208728044627       45.84027347811377       43.54134013732559
C           58.45955873162072       47.11963014600487       44.07150983668815
C           59.60403088096997       47.65536866909494       44.63494999375787
C           62.76842048334709       48.28248490113008       44.20292755631636
C           63.63049087036938       47.37409078939596       43.30441286928890
C           65.01364250743585       47.30268901474158       43.89945291493041
C           65.37345656272487       46.23445844791659       44.71352190043623
C           66.61265738833657       46.19057032256030       45.32876634397250
C           67.52304074064719       47.21300005792629       45.12970901391113
C           67.17776751402349       48.28383961581858       44.32157341682370
C           65.93238372178914       48.33189798128203       43.72278557745798
C           63.60049940720167       47.85436467445582       41.84987024103496
C           64.45871627257742       46.98762444377940       40.91808727400407
C           64.52195368235785       47.59053131470680       39.53756922018992
C           65.74263775630335       47.91961819140653       38.96305900918188
C           65.80768435902934       48.43157226674192       37.67817702399137
C           64.64770572689196       48.62441729384028       36.94800660915104
C           63.42477294690731       48.30011929078749       37.51135976482898
C           63.36327056717620       47.78680491118296       38.79357838661019
C           63.94327434397084       45.53409124382185       40.82848678962595
C           64.91508034910225       44.52658868065191       41.45990440180220
C           66.28204062105185       44.64862775907137       40.83434046604810
C           66.47120879368076       44.46768101787610       39.46882366999317
C           67.72803192202554       44.57847894132070       38.90327286981410
C           68.82400531766795       44.87582623714739       39.69610988148217
C           68.64894740943474       45.06816158046906       41.05571133073721
C           67.38868755834115       44.95638291110326       41.61651729051034
C           64.37748377012819       43.09845523641310       41.30571243841179
C           65.23158374466605       42.04220350760612       42.02776278389679
C           64.88547878651538       41.99773267029921       43.49264663387937
C           65.72871574842218       42.57966713071858       44.43104687704469
C           65.41436976264815       42.55670399514550       45.77877064189332
C           64.25675365685137       41.93317676613645       46.20902471214241
C           63.41449416048443       41.33957697134734       45.28462566482413
C           63.71921105648278       41.38394135262421       43.93635457873388
C           65.05028749297081       40.67249544121992       41.35187584884799
C           66.00258870411126       40.52318799855071       40.15476026638161
C           67.38039080985094       40.14959319586076       40.64327905898732
C           67.63210837559686       38.90964697192000       41.21959766963551
C           68.89581022525631       38.58287115276388       41.67560914368472
C           69.93251359957110       39.49515700863000       41.56909046969883
C           69.69391819689390       40.73416129983488       41.00123014341852
C           68.42875300146119       41.05551665261891       40.54088613214664
C           65.50468835170022       39.50569198428356       39.11478643094190
C           64.29314038921964       39.96846108224586       38.28333445942503
C           63.89186166034028       38.86951932471008       37.32967391695917
C           62.66762364317165       38.22734950226835       37.46506002204306
C           62.28130858628065       37.23885464510501       36.57692221989564
C           63.11852753164531       36.86684110856685       35.54036586417337
C           64.34776285418654       37.48926721537462       35.40291086123549
C           64.72805077660763       38.48106748722612       36.28868097366917
C           64.59305696731359       41.26930102523541       37.52654090618341
C           63.49231906711280       41.71166133748877       36.54596649900502
C           62.13330981746027       41.66090607366488       37.19579013022539
C           61.12962869013705       40.86399173227073       36.65798396249266
C           59.90185752789007       40.74571233624124       37.28610591975570
C           59.65973399010702       41.41585800805626       38.47240987148489
C           60.64341557067217       42.22946219489693       39.00703092029171
C           61.86386266627373       42.35713423054701       38.36914493039201
C           63.86048603024678       43.10933987591309       36.01957715388868
C           63.12553517182299       43.51159376066517       34.73026227466087
C           64.00726083368235       44.40745316603606       33.89507120086007
C           64.39186857608439       44.02492336292933       32.61629724032011
C           65.19800806431975       44.83937344610730       31.84051837770378
C           65.64174422071586       46.05181072629630       32.33897477423523
C           65.27537771560334       46.43847290097585       33.61706692505758
C           64.46476493777226       45.62508765629012       34.38757125614300
C           61.78911345730874       44.20301733233560       35.02176699956465
C           61.00156192413563       44.47234437812406       33.73141374040635
C           60.59644545915724       43.17378576231756       33.08558340736802
C           59.78708710186485       42.25628202111906       33.74632318727654
C           59.48033939108894       41.04028567529343       33.16197374146782
C           59.96637806332658       40.72494158298336       31.90450946525543
C           60.75155694924511       41.64111277554496       31.22714903538852
C           61.06413629082510       42.85322297983293       31.81694366506734
C           59.79904142623690       45.37378467977474       34.03149146535841
C           58.94901705367495       45.69369674279721       32.79449901525680
C           59.80880572963441       46.18064970334886       31.65460241092246
C           59.77451609431184       45.54117318790917       30.42234404196941
C           60.54972570152788       45.98730622979639       29.36602046948668
C           61.37605095670244       47.08569103030308       29.52721989893078
C           61.41364683028502       47.73725546795252       30.74867581276274
C           60.63397063806192       47.29084868761437       31.79945777965389
C           57.87166220945065       46.75389018056924       33.10412297004793
C           56.52441680108203       46.16951472185654       33.55393363430555
C           56.69165487721895       45.28108073432110       34.76113913258519
C           57.05173719962120       45.80365454281369       35.99879897210019
C           57.24518180258405       44.97460897477136       37.08748044327282
C           57.08483900710830       43.60606241823744       36.95806596597664
C           56.70344564729933       43.07544365427046       35.73897144616265
C           56.50580554431131       43.90867129083728       34.65139768252245
C           55.51564704496698       47.28204032048937       33.87711122848708
C           55.09118433045147       48.16872626219503       32.69683593671645
C           54.28924360646572       49.33356019670701       33.22550234803080
C           54.74642771910271       50.63349804275087       33.04860509523382
C           54.02929185056239       51.71111486804203       33.53851003793580
C           52.84328105539783       51.50539472526379       34.22197438783911
C           52.38544251779779       50.21363099750044       34.41535838817784
C           53.10307952981891       49.13904171823609       33.92337693227064
C           54.31309637480638       47.36751431358615       31.64283182196987
C           53.71920090095723       48.24700872424247       30.53360302361531
H           64.40997625602427       44.27079432205197       52.40179832014120
H           63.61858659167490       44.65615204641490       55.31101696095261
H           64.88516962341119       45.61106390023438       54.55409510545334
H           62.40758567616842       45.57960323230412       52.94812880983356
H           62.72650309517495       48.11719590131850       53.28076645694039
H           64.21443519657512       47.70643535988721       54.13816561079227
H           64.90638058186494       46.41165098307143       52.02069832268197
H           62.60323113690992       46.41606352205260       51.00668164370564
H           62.71417634762356       48.16943580207611       50.83382542519383
H           64.65217637131754       47.93230188827255       49.34510754106621
H           61.91654478999492       47.01339355467551       48.81878660731628
H           63.87936370014524       48.38063088641515       46.93858695568380
H           60.86636453477283       48.04104017881919       47.03850415310833
H           61.57599318348642       49.40662074782553       46.18673687345115
H           62.68028516003455       46.66831973619109       45.61692522404530
H           62.03353006791647       48.81651143086350       43.59794141320674
H           63.40769018182736       49.03948730792123       44.66115840628320
H           63.20174070358318       46.36933407624083       43.32329432606777
H           62.56392091014097       47.83406638990034       41.50813587372245
H           63.94124845330515       48.89027973784167       41.79068962273924
H           65.47644116515436       46.97260274631705       41.32203660364338
H           65.00900908882686       44.74974978362415       42.52673811645044
H           63.35650219382260       43.05090244195637       41.69050521010576
H           64.34338048500858       42.85225609340429       40.24494816690660
H           66.28686442812798       42.32437079788978       41.94053283271907
H           65.24960444988973       39.87743551523971       42.07303331939282
H           64.01623718069581       40.56465279754278       41.02415422924087
H           66.09754223006027       41.49424067393131       39.66353936567918
H           66.33175391800408       39.28342044970316       38.43585216517384
H           65.23950553351362       38.57275659926516       39.61730220785775
H           63.45204686538489       40.15072399498376       38.95935075656160
H           64.73942248655533       42.06957239981682       38.25048285924908
H           65.52655570009610       41.15822582433588       36.97084843661568
H           63.48862520861352       41.01597865687791       35.69873354036547
H           63.67411854778000       43.85670393045540       36.79301701360696
H           64.93411222600558       43.11236312991571       35.81127744775912
H           62.91999475660429       42.60370387896545       34.15154575052660
H           61.19782626959982       43.57564239374691       35.68996938696795
H           61.97904616470111       45.15162943044724       35.52851398738242
H           61.66209890159278       45.00525788838987       33.03723221448121
H           59.17160699242751       44.89954076550471       34.78504682663689
H           60.18035716233623       46.30689891101159       34.45167289331720
H           58.45207349383177       44.77224373770449       32.47181165626150
H           58.24363640551875       47.43796222402883       33.86921413737550
H           57.70394667017207       47.33982132151720       32.19763363377158
H           56.12677626930713       45.55498481774853       32.73943107547873
H           54.62472217261445       46.81537139229424       34.30191870928422
H           55.95019235045190       47.93174609556615       34.63975426922954
H           66.55220390479619       43.58382477961333       51.96256896725296
H           68.68544570245514       42.58382186122336       52.65235141653264
H           68.95657142935897       41.69351709116084       54.94099285265297
H           67.07264252854402       41.79726341894023       56.52193709450573
H           64.92647389402916       42.77794065129564       55.82344255253909
H           60.20787383739168       45.73046083879944       53.57500560635714
H           58.47171090176195       46.19100532253284       55.23136950027356
H           59.08459667748888       47.05250715917789       57.47168515425609
H           61.45637096858652       47.45975683882117       58.00971764226934
H           63.20324988848527       46.98826605649383       56.34041482454932
H           66.95298789505362       47.34168169389895       51.62810141407657
H           68.44041116019881       49.28538780940212       51.39106960751952
H           67.52243511216922       51.57201136100616       51.54142525328436
H           65.10142890821025       51.89504608728077       51.90749330691293
H           63.61925623876228       49.96363545318070       52.10967681950705
H           66.60963089135768       46.82971848307422       48.92375158950529
H           67.95721362164407       44.77738293331522       48.79879155852405
H           66.91316908879860       42.58045250405972       49.23517029369436
H           64.51455168977066       42.45766336750213       49.78184333720694
H           63.15679429696490       44.50255577208947       49.85693535383426
H           63.05109014998438       46.24629275416954       47.71380515563467
H           61.03187009535364       49.19427622768927       49.27563629664250
H           60.95509502594301       51.26466987915681       50.57956864696738
H           62.79764390264897       52.90861812388861       50.41711270621304
H           64.70973850841885       52.44527324195691       48.92847568219049
H           64.77780885015838       50.37317399701841       47.61121002260369
H           61.65651173490960       45.00271848868087       44.27572201922848
H           59.65409053145144       44.09396475971292       43.18654644841720
H           57.58898504529129       45.42506925167834       43.07758486767634
H           57.55609202418778       47.71079759195498       44.04711616306154
H           59.58243927065561       48.66401280400328       45.01933058908455
H           64.68270279407886       45.41753778276642       44.87561621743443
H           66.86596105606425       45.35581947863655       45.96670323488171
H           68.49479802379062       47.17910993591296       45.60233904346364
H           67.88277571514647       49.08863709634048       44.16340370711311
H           65.67186504211273       49.18507082304508       43.11388449115768
H           66.65472994459900       47.76317614943064       39.52380233419213
H           66.76769655830898       48.67683822580039       37.24555476417025
H           64.69625121454449       49.02364039504703       35.94484043968956
H           62.51332836423754       48.44341516401618       36.94893333594748
H           62.40398053407807       47.52769554407002       39.21451227068929
H           62.97181390994643       45.45155572026611       41.31735923623275
H           63.79480182432034       45.27339048789808       39.77867612520042
H           65.63042070736367       44.24937881857050       38.82725324429794
H           67.85434714915485       44.43469334435628       37.83946449520276
H           69.80742084172985       44.96050721545441       39.25608675555680
H           69.49679489112704       45.30820902678880       41.68207762280121
H           67.26140547690993       45.12190012795958       42.67804478872504
H           66.64495054303622       43.05067570730575       44.10101814798340
H           66.07461644846840       43.01860899938122       46.50006465850298
H           64.01688778933590       41.90630633931724       47.26090123753952
H           62.52085829378458       40.83308814041055       45.61894118035617
H           63.05035482246119       40.92051173726789       43.22623122388305
H           66.83309778050715       38.18870263567405       41.31375588888918
H           69.07460564327623       37.61302907969873       42.11795487127172
H           70.91951608196335       39.24045183682924       41.92724164165595
H           70.49512367240575       41.45439859320987       40.91534761075214
H           68.25614924754986       42.02713294169683       40.09824755559276
H           62.00352293864554       38.50799236847894       38.26976753242145
H           61.31936599009208       36.75813515068397       36.68854978507544
H           62.81773385025706       36.09711024526356       34.84400625421735
H           65.01106321899869       37.20251516218557       34.59904015702673
H           65.68810592358140       38.95956031439163       36.16041858107469
H           61.31573178711236       40.32458632730231       35.73888656718918
H           59.13702799424257       40.11573335135008       36.85616722207710
H           58.71149142873579       41.30117917569273       38.97813179422814
H           60.46459950543343       42.75854858794759       39.93120143218106
H           62.61553273933340       43.00138944135315       38.79950829270226
H           64.05388475341216       43.07598459914612       32.22257461876852
H           65.48191697974011       44.52632898712611       30.84557862781938
H           66.27236665362913       46.68890964369062       31.73577084163977
H           65.62646365737776       47.37869703114315       34.01727062815301
H           64.19345547295651       45.94392720392923       35.38357583271863
H           59.39627203557665       42.48821564780467       34.72642184635801
H           58.86156823859564       40.32759566483399       33.68804459563460
H           59.73513597641554       39.77173228045150       31.45218340160203
H           61.12750445253686       41.40847526156220       30.24042561875660
H           61.68415463609696       43.56326326540496       31.28652762369173
H           59.14003146436654       44.67519532399536       30.28947445953926
H           60.51146916158747       45.47421819054186       28.41521116756933
H           61.98641174448002       47.43312261011550       28.70600565798544
H           62.05569320589399       48.59648944480448       30.88138458398494
H           60.67242483697020       47.81247473762836       32.74396501403016
H           57.20552548654401       46.86635956409935       36.11412034671754
H           57.54096733923139       45.39822853991134       38.03504566459758
H           57.26377280348991       42.95889760868563       37.80292236186430
H           56.56015963012109       42.00948088565740       35.63258329173719
H           56.21431540053790       43.48637953383004       33.69982916692565
H           52.74022635603449       48.13690510851399       34.08849668066610
H           51.46812784574519       50.04870532906723       34.96126571325411
H           52.28341645348902       52.34311043664317       34.61273107983470
H           54.40372262820984       52.71495976727293       33.38685111377850
H           55.67413853039822       50.80630953564587       32.51952770778649
H           62.21595436068515       43.31314742864460       53.12792253122991
H           63.37917602778231       42.05954260502279       52.69601451393833
H           63.03433347938660       42.40537861418691       54.39208081048513
H           55.98697040450954       48.58145278195644       32.22301341001565
H           54.98222083485677       46.63114849555441       31.19520042780930
H           53.50545306851258       46.82025532319457       32.13201818699564
C           53.18847693725640       47.40536223577806       29.36018608758134
C           54.71377187171301       49.24099049642317       29.98822255248500
C           54.37216251006517       50.58230748483258       29.87308493328532
C           55.26458522989481       51.50321058346817       29.35307234808481
C           56.52119250775976       51.09460046180475       28.94115631223788
C           56.87409417811404       49.75958101411572       29.04764567580255
C           55.97566150178911       48.84216756578012       29.56125769567954
H           53.39829461689369       50.91581880570601       30.20458706309307
H           54.97924472754070       52.54256520080607       29.27337074832030
H           57.22273459379492       51.81121363968924       28.53902569222098
H           57.85413086756586       49.43203071804439       28.73007979958878
H           56.26809066399476       47.80469592286580       29.63400402558242
C           52.11239339526469       46.40002750621624       29.77868307543355
H           52.76860534341569       48.08202006291502       28.61099901734978
H           54.02347683215872       46.88099914218180       28.89176367114223
C           51.42518459724512       45.77594457253095       28.59881068685332
C           52.14137873872535       45.03969823533482       27.66186873094279
C           51.50899203052629       44.46539058352673       26.57481322887951
C           50.14179145145557       44.61322996407510       26.40833595955427
C           49.41620653628962       45.33747415063095       27.33751538463202
C           50.05513589337047       45.91416737574158       28.42085323409921
H           53.20784373123303       44.91534847518042       27.78402571987251
H           52.08180434606963       43.89852192673223       25.85433929585798
H           49.64642288356900       44.16424524927920       25.55943966743371
H           48.34876275927224       45.45688746373872       27.21784789174902
H           49.47832952245174       46.48263099612386       29.13653744006275
H           52.88034975677065       48.81021171480997       30.95856762731257
H           52.56593192733959       45.61078857600967       30.38269209790866
H           51.36659117967022       46.90906347480885       30.38920972933111
C           51.14017838264793       46.19933587358074       49.77291700462127
C           50.98453468468870       45.63967743945387       51.03625175268152
C           52.01338819295972       44.85424578293956       51.54028778519246
C           53.17189419447097       44.64130326980452       50.81486751938684
C           53.31573886801576       45.21042451255478       49.56248910170765
C           52.29003183216088       45.97776836035275       49.03763953357908
C           49.78789221098896       45.95183048306761       51.89749416428061
C           49.95714050497450       47.37597704691967       52.44293851590631
C           48.43518388149673       45.81244837774973       51.19061812950387
C           48.05755049502729       44.36349006244350       50.81431025104263
C           46.59313195141791       44.12938891687883       51.10668243703413
C           45.61288697262572       44.96813700335091       50.58862571629437
C           44.27664215549510       44.76974840886805       50.88268723648614
C           43.89230775159452       43.71623733824228       51.69328193504499
C           44.85471028824268       42.86097458364336       52.19923572454872
C           46.19220164089506       43.07300279582901       51.91459664241081
C           48.36912865087068       44.05280397231488       49.33915116546227
C           47.94349192069254       42.62849619045378       48.95178172587049
C           48.89655378025731       41.57414342125497       49.45523930020884
C           48.44562662279019       40.56437784305312       50.29668828635697
C           49.28598326727973       39.54240179017592       50.70241965420293
C           50.60378747527958       39.52006655006054       50.28194004461220
C           51.06988960221089       40.52621550776779       49.45346961784437
C           50.22446282223427       41.54104704379676       49.04419430876114
C           47.73805455668639       42.46604264760614       47.43298816314299
C           46.88315797710865       41.22514993996416       47.13527089990447
C           45.56233467382378       41.33061190493159       47.85976470037686
C           44.68978790234481       42.37981034588412       47.59964387570952
C           43.50384933351814       42.50439704337700       48.29957004049864
C           43.17125929481994       41.57968829282080       49.27358735440777
C           44.01841912882427       40.51520285402467       49.52493420271266
C           45.20008024548927       40.38977317711805       48.81554844024181
C           46.61053024779608       41.02145795538323       45.63591886481372
C           47.78747688144638       40.48209765677468       44.80930506054258
C           47.45768877832621       40.55840278222812       43.33661354646813
C           48.34013708353064       41.16507010965833       42.45166460158241
C           48.07204904891719       41.21372009568071       41.09482993243876
C           46.89140491468820       40.68792701467698       40.60122371979438
C           45.99758370350519       40.09344699657585       41.47357325458412
C           46.28913538688276       40.00881429902919       42.82279127741945
C           48.14717026269303       39.03714010896581       45.19203644650076
C           49.29052633447404       38.48248529212906       44.33564979201635
C           50.56773964738298       39.27429123987501       44.46853946551561
C           51.26184903731018       39.65753554458041       43.32676662241617
C           52.46296341646654       40.34013911815383       43.41241293387695
C           52.99151372499200       40.64651894824968       44.65346073991919
C           52.31593929107793       40.25985269307433       45.79830390617966
C           51.11614870807973       39.57947601132470       45.70836207967932
C           49.58801245355878       37.00776798835529       44.66807710869856
C           48.65701002403233       36.02734891819863       43.93822893596074
C           48.72708066873349       34.64750590111635       44.54182983776198
C           47.56388158618265       33.96639674189783       44.87659097960318
C           47.61373042717768       32.68076170326895       45.38759966345038
C           48.83237175835936       32.05645788837771       45.58727805347649
C           50.00007012482822       32.72769472448476       45.26419745940749
C           49.94575494887738       34.00727478552339       44.74186702193606
C           49.01523535518438       35.95408334587012       42.44540907426498
C           47.90511557610925       35.35911625157149       41.56058812092567
C           48.52748462154223       34.91662564023308       40.25904728962082
C           48.54814921583220       33.57721464459340       39.89673672312795
C           49.13486257024149       33.16824657991224       38.71251984176943