3258
 energy: -3427.528329673271 gnorm: 0.000818093447 xtb: 6.6.1 (8d0f1dd)
C           93.81561385309799      116.66573885283907      114.79244673231811
C           92.71690079212780      115.72394755009901      114.31861261272786
C           93.15969294737022      114.26441124844361      114.37066334777593
C           92.06443918305139      113.31235226331714      113.89804137849563
C           92.51242144555262      111.85472972759679      113.95256306473959
C           91.42442668959514      110.89163189301263      113.48457537417983
C           91.87052786997357      109.43614545810664      113.59884205992053
C           90.80846703848552      108.46377661172686      113.09339713716260
C           91.20244457431578      106.99577544694245      113.26692331031751
C           92.40379669516744      106.59531478657944      112.41406060727510
C           92.65205363120954      105.08846417566077      112.43610952785461
C           93.84236593444282      104.67420907572809      111.56870229720451
C           95.19735688632140      104.98820382778268      112.19967624766282
C           96.33654512470255      104.78152517289790      111.20711648414785
C           97.71694949100812      104.98048442007256      111.82704901626781
C           98.80141267185850      104.99505004717672      110.75316179758175
C          100.20878003398651      105.11190531683707      111.32927613802697
C          101.24912534247589      105.30658484725154      110.23149970990306
C          102.64069520420180      105.62728498128155      110.76958476259361
C          103.63987339433196      105.76956844321319      109.62602626525019
C          105.04674517105254      106.14507850727466      110.08096600273691
C          106.01997763774800      106.11975405467038      108.90566906082442
C          107.47059921377853      106.35374553964004      109.31144487878223
C          108.42088782769834      106.20384286494345      108.12540011630011
C          109.88119734663887      106.27462169903905      108.55792626994420
C          110.86151437144994      105.96553821494958      107.42870231501431
C          112.30387595811631      106.04066417154598      107.92360660434535
C          113.32698332199480      105.56792964566857      106.89460491029405
C          114.76413677854011      105.88069995236370      107.31205036385624
C          115.20396494720600      105.20075948281122      108.60663116673790
C          116.63312122410260      105.59094395431102      108.97597599042891
C          117.04918003935198      105.08636028740837      110.35579939372064
C          118.53485892517536      105.30179829808526      110.64484278112003
C          118.93732983522084      106.77195882726360      110.71961478482949
C          120.42130386097779      106.94365358923480      111.04120834704818
C          120.92574559025250      108.36456682747546      110.78523724136839
C          120.22622759668100      109.41072433973562      111.64910779960157
C          120.84967773858683      110.80228948430070      111.54652330711470
C          120.78190694657891      111.44017470705288      110.15874767645371
C          119.36179438662700      111.64954521359306      109.63900119895615
C          119.35389127094869      112.46226116248187      108.34679495262492
C          117.94518893957944      112.70357524925215      107.81117816178863
C          117.95916166835271      113.55836301578869      106.54731776418448
C          116.56017116055848      113.95538637795271      106.08335970266245
C          116.60938272454936      114.77068085853561      104.79313901737113
C          115.27855958470820      115.42131754116511      104.41770591476494
C          114.16483970856676      114.42147152249667      104.12015319561898
C          112.87851153922909      115.11604483481116      103.67885576559348
C          111.79676352878103      114.11125352950437      103.29531345928888
C          110.50679407942282      114.76139890042577      102.79675158635956
C          109.76129214523874      115.53001183902035      103.88795122429273
C          108.28059468022977      115.74123476633250      103.57542431874461
C          108.03407075870540      116.57428397251981      102.32140915174068
C          106.55295333058046      116.59691113597346      101.95323178014500
C          106.24341317472104      117.38500362856479      100.67811857688680
C          107.05983871127535      116.96819265649464       99.45336261875708
C          106.90508908633429      115.49643115286085       99.07657086100491
C          107.85300799869265      115.07880515480355       97.95088575628439
C          109.29312411283604      114.89408942596936       98.42712291221341
C          110.22658903918416      114.50304445539774       97.28488257338014
C          111.66939656967422      114.31282288802258       97.74763107671070
C          112.60006722050694      113.99096298640885       96.58079388033647
C          114.05195108086836      113.81157681499170       97.01773037486518
C          114.96491569580371      113.50597523455419       95.83174165500807
C          116.41956200538239      113.24922252446699       96.23284882651704
C          117.21931763560953      114.50634982510263       96.58013630923143
C          117.59183375160683      115.33674042321231       95.35322236527658
C          118.55689838668795      116.48108385142604       95.67166286412278
C          117.95829423970788      117.62179677984716       96.49807089985607
C          116.97534577952935      118.48696923251305       95.70983855712939
C          116.27488777095917      119.53959947421080       96.57179998501168
C          117.20812815094237      120.64718145219486       97.05638972051717
C          116.51442433068037      121.67391678654448       97.95535085873026
C          116.06161183882394      121.14010512995814       99.31703337321053
C          117.21630501005137      120.61882782536642      100.16924157431031
C          116.79896677720589      120.25047167977561      101.59275614865562
C          117.97646505849652      119.65392881821006      102.35996796634039
C          117.67294476794289      119.33457152676989      103.81990623044739
C          118.92794078638063      118.85456508697099      104.54732272659591
C          118.64947053795061      118.50561871404103      106.00547816259228
C          119.90234749728687      118.13511681913096      106.79670139953426
C          120.58725902444989      116.86814877997215      106.28865281981039
C          121.54425133652255      116.27211811002047      107.31847251568591
C          122.18580092698267      114.98917587487597      106.79873406797351
C          123.00861097850351      114.25482313669563      107.85259132514103
C          123.60597639920221      112.96441803960597      107.29716779713178
C          124.32508291216716      112.14324267963136      108.36322751995930
C          124.83027738953925      110.80781311973580      107.82189547586624
C          125.56379485684069      109.98981857827162      108.88183918423512
C          126.16976409137810      108.69565348131414      108.33753986033817
C          125.12630104023357      107.62760451837043      108.02002911595946
C          125.76406508285172      106.33734519600098      107.51045382739809
C          124.72943809980440      105.23538929710097      107.30322638503084
C          125.34340349534170      103.94922154306531      106.75509670471691
C          124.32393425892420      102.81357588139360      106.71703242065215
C          124.92739424912273      101.48563766969342      106.25894493685432
C          124.09494738965684      100.27317371001659      106.68187126470636
C          122.69572002715483      100.25062023674683      106.07300889038824
C          121.87737717895349       99.05269771371114      106.55296873690676
C          120.49175611926596       99.03012556511486      105.91320999657808
C          119.57483713970591       97.95438832351016      106.49151145187760
C          118.21392270434940       97.95772161746156      105.79631074801686
C          117.16465251906297       97.12104366901120      106.52345037174294
C          115.80073714497281       97.21760061986294      105.84055241338174
C          114.65626351453611       96.72179569676062      106.72243991726771
C          113.29194417905902       97.03161386216151      106.10797663106118
C          112.14464322554178       96.83626933839763      107.09606495956641
C          110.80510836357554       97.27026167454189      106.50553136268317
C          109.67599116348929       97.24386005192412      107.53266066923666
C          108.35430396614039       97.72755699539361      106.94090078101021
C          107.24489607698546       97.80018431465359      107.98669251147609
C          105.96530343490777       98.41873270553928      107.43096723423669
C          104.89656462940920       98.60776436537306      108.50506188575855
C          103.63156091876462       99.24591922099621      107.93718274250151
C          102.56091129575873       99.48417857976173      108.99913130111990
C          101.28754359215453      100.06881268984172      108.39265702335014
C          100.19214059413618      100.29662425399475      109.43084518473781
C           98.90138102977902      100.80690708621621      108.79576253832073
C           97.77361525196505      100.96210276889292      109.81264438769671
C           96.47478352892348      101.40434702879026      109.15017457122092
H           97.61363924828886      100.00792062090495      110.32139617797648
H           98.06560410159987      101.69239359375062      110.57123927095199
H           99.08919245165228      101.76926595809904      108.31346914400471
H           98.58515038558400      100.10909963576491      108.01663703185714
H           99.98723664631075       99.35553820186641      109.94898795597322
H          100.53996363339049      101.01458529507993      110.17748714034850
H          101.52297632962215      101.01653153591712      107.90277915411728
H          100.91475604693962       99.38912797529125      107.62234832838965
H          102.32496516745758       98.53803275942414      109.49340149777916
H          102.94724451574227      100.16438483825497      109.76223348095370
H          103.88949292600743      100.19913781587964      107.46907675195011
H          103.22438892762563       98.60062401454903      107.15496880501729
H          104.64895948848626       97.63964678523577      108.94770387804945
H          105.29507097702513       99.24026860673936      109.30253681595228
H          106.20083757563356       99.39128403100983      106.99149521266416
H          105.57067785673121       97.78788668747625      106.63113486240805
H          107.03306764191204       96.79797984926101      108.36725262150367
H          107.59255301343090       98.40296428189492      108.82723514446329
H          108.50269042452796       98.72119653122651      106.51048342893235
H          108.05144649441030       97.06474754170080      106.12722233105509
H          109.55500340297327       96.22872275902549      107.91943470039860
H          109.94378264176972       97.88881270120727      108.37392755620290
H          110.90252920985387       98.28669756422654      106.11544837714679
H          110.54978716568694       96.62343162152457      105.66313594224941
H          112.09115685234677       95.78891087266905      107.40261000375338
H          112.34668772299347       97.42958067258101      107.99172561928074
H          113.28566576844220       98.07189142133183      105.77406832320966
H          113.13122088659946       96.40817771124748      105.22555902752336
H          114.75333888756086       95.64679624031801      106.89234026365975
H          114.72307645314187       97.21488778950173      107.69491655098017
H          115.61428644839516       98.26498982021243      105.59141877936993
H          115.81357171862049       96.65909521685045      104.90152807567178
H          117.48630755112615       96.07868710312356      106.57776050745015
H          117.07429818569459       97.49332135752358      107.54652534020759
H          117.85142883086951       98.98818032139050      105.74202338974804
H          118.32727187172141       97.59343622114442      104.77246241450248
H          120.04195930851131       96.97230339215331      106.38564698309284
H          119.43657789949877       98.13941690089649      107.55959296896619
H          120.02060504614821      100.00588555060915      106.06148664505217
H          120.59798265981159       98.87464254072339      104.83741677564008
H          122.40609232166513       98.12626982832479      106.31414184993511
H          121.77461492116734       99.10065198262085      107.64012035352530
H          122.16806694509910      101.16642216702338      106.34618942974782
H          122.77538654152842      100.22480926226461      104.98364820578325
H          124.62460507303068       99.36216685881617      106.38966889189091
H          124.01037579560384      100.26408299423757      107.77206302646495
H          125.04404958713249      101.48956060486236      105.17262507723001
H          125.92519750692603      101.38122092538737      106.69446100303476
H          123.91230046977016      102.68840009870213      107.72082233947179
H          123.50279445470659      103.09287078033523      106.05448908844042
H          125.73828622230540      104.12648969088801      105.75173800411807
H          126.18367903213920      103.65573832034467      107.39104655902563
H          124.24529585602238      105.01958797208941      108.25868494417625
H          123.95593991950281      105.58933543031718      106.61688319222381
H          126.28288754810497      106.53438165261592      106.56853855240087
H          126.51168045676502      105.99529466439817      108.23116572366133
H          124.55177279804741      107.41040923941692      108.92428555397923
H          124.42830814478687      108.00155558395163      107.26827409004328
H          126.74963001031394      108.91768779289792      107.43771107176813
H          126.86345797694483      108.29184602762665      109.08075169707176
H          126.36742915241659      110.60186446607895      109.29930409251965
H          124.87760120918081      109.74853128736090      109.69732373366820
H          123.98195074050133      110.23895846764879      107.43525338126366
H          125.51070629117122      110.99106293801191      106.98687659639540
H          125.16387375395749      112.72087951191779      108.76104052823855
H          123.63468856731430      111.95162785810516      109.18754086236217
H          122.80216704250374      112.36066434524265      106.86928450118999
H          124.30135523304294      113.20405887562457      106.48778899018760
H          123.80542088547662      114.90223807091110      108.22364590590709
H          122.36318965209259      114.01109888735752      108.69935395374202
H          121.39237371849836      114.32345600913723      106.45062842301323
H          122.82039388993933      115.22468670990861      105.94075850914716
H          122.31618682303136      117.00289458104999      107.57268432294886
H          120.99198291251358      116.05383978647704      108.23598355577292
H          119.82732323115560      116.12094427716983      106.04550254793995
H          121.13521754072868      117.08247159629630      105.36856206644406
H          120.60919652703021      118.96588641429254      106.76588743493829
H          119.61607957972697      117.98557401830276      107.84113771265956
H          118.17251270652648      119.36255680717410      106.48763977503928
H          117.94509520811332      117.67052928912044      106.04373076726766
H          119.32880070030541      117.98085662310974      104.02916907490908
H          119.68744276961058      119.63992472380438      104.50399046243061
H          117.28825381434075      120.22885270968338      104.31718295036734
H          116.89870174240966      118.56476944379929      103.87583142478266
H          118.30099156805353      118.74106070879304      101.85390258484368
H          118.81203110817636      120.35751268575656      102.32993623372873
H          116.43452619089418      121.14012418948687      102.11367794644583
H          115.97870083816112      119.53003700394358      101.55983227900744
H          117.64811321468473      119.73407993124461       99.69706433706068
H          117.99656536579417      121.38403175717092      100.21025274276023
H          115.56191958409021      121.95390581361320       99.85000460218392
H          115.32257257529399      120.34949960522796       99.17697233043816
H          117.20376998143234      122.50581368984828       98.12383384850125
H          115.64313919073645      122.07322934658349       97.42876667082041
H          118.05159438457316      120.21375538564577       97.59296025386639
H          117.61142956293651      121.16966286188178       96.18432293573923
H          115.46828910312566      119.99382036641586       95.98933869073527
H          115.82007560427954      119.03908403534395       97.42648111657647
H          117.50325710138928      118.97903792191022       94.88851077760444
H          116.20920621039974      117.84542942860507       95.26920410652194
H          117.45531109107345      117.21427811184894       97.37514805587740
H          118.78003155979971      118.24807389141601       96.85235429194115
H          119.41041258245674      116.06683820422518       96.21499827184984
H          118.93787415786501      116.89355506970071       94.73341535946381
H          118.07262726461424      114.67982584680315       94.62224732354251
H          116.69178492534819      115.73564147473121       94.88352958501507
H          116.65106760775471      115.11621184087116       97.28086273212985
H          118.14144775919321      114.20133412651248       97.08163505377340
H          116.42764117635987      112.57613536186328       97.09358787681096
H          116.92499288227896      112.73408048873604       95.41102265308348
H          114.58169833833090      112.61694914343936       95.32452730897303
H          114.91836217242329      114.32964449216455       95.11669279331005
H          114.38546352873021      114.72088839035641       97.52106372187765
H          114.11222987044484      112.99268383233724       97.73971492996442
H          112.25616863933853      113.07780338749353       96.08849401707307
H          112.54471220286761      114.79911318966815       95.84608367286046
H          112.01334651792666      115.22362989231284       98.24365768742258
H          111.71132270104229      113.50320586722273       98.48061392873717
H          109.86978076461391      113.57727336140316       96.82706881799589
H          110.19637232666616      115.28107749545578       96.51701693094775
H          109.65563277626377      115.82017489850476       98.87687050211964
H          109.32021867206653      114.11931542015792       99.19798305223570
H          107.50522389896152      114.13567351951326       97.52362630023615
H          107.82585750971845      115.82914152494543       97.15629842800759
H          107.10479399302710      114.86807044040943       99.94540083000014
H          105.87195241587663      115.31652851954357       98.76820346768100
H          106.74545350132226      117.58324405217162       98.60512946498942
H          108.11097557639854      117.18975439937995       99.63532081872067
H          105.17851713502846      117.27606460883568      100.45317874919373
H          106.43093985162072      118.44544674211818      100.86136052680514
H          106.20058173809872      115.56916816400623      101.84131256465065
H          105.98644413755575      117.03638956883846      102.77954712293241
H          108.39369657155126      117.59484765924270      102.47695302732461
H          108.60040130550149      116.14061134236317      101.49910514349908
H          107.80683987828813      114.76529056022389      103.44337920352775
H          107.79878738050850      116.22466681742860      104.43015915960082
H          109.82881012767115      114.96020071317301      104.81776129609746
H          110.23816166429013      116.49685004657623      104.05642315928763
H          110.74704438763050      115.42857550737934      101.96729368124589
H          109.85301396180292      113.97667321549335      102.41044209027818
H          112.18683965848471      113.45934225273473      102.50795601219563
H          111.57038831317628      113.48203325416270      104.16062976703346
H          112.51730677391234      115.75032545902566      104.49031972015243
H          113.08778628463736      115.76069163433593      102.82198065373954
H          114.49400559265743      113.74022347990022      103.33043637893286
H          113.95671920453761      113.82132908850662      105.00837180847003
H          114.96034101641592      116.08308062841238      105.22640686890236
H          115.43532348364825      116.04340211999295      103.53170349448131
H          117.35672785860520      115.56210207905993      104.90654542562119
H          116.93853555067884      114.12505789462722      103.97759273765067
H          115.96237531621749      113.05416877146200      105.93013321963194
H          116.08100624377649      114.54815962868038      106.86580101705158
H          118.53834299981941      114.46461671164130      106.74291338944188
H          118.46728683748667      113.01253053186691      105.74707817752115
H          117.46342680474096      111.74497310883858      107.59870793294367
H          117.35338228129982      113.20910115525382      108.57750316514787
H          119.83203370186712      113.42837100617091      108.52880934632003
H          119.94561099857906      111.94317536334137      107.58857069539307
H          118.88558344515975      110.68392278301192      109.45750897067558
H          118.77618595289013      112.17422527205223      110.39715858295313
H          121.27567200566727      112.41451359152096      110.21597314832411
H          121.34269694870986      110.83408609844096      109.44391396646395
H          120.34383642504426      111.46071274420423      112.25823244647836
H          121.89926672489551      110.74209479366867      111.84806096824873
H          119.17177080492377      109.46592647156498      111.37864845525539
H          120.27866258694688      109.09240288716582      112.69238945380309
H          122.00059958793508      108.39904746738068      110.98746919021389
H          120.78060855334682      108.60214021269758      109.72900902065074
H          120.60586610661461      106.66983903406891      112.08291950332544
H          120.99984198166977      106.25237923124524      110.42091341559126
H          118.73203643900730      107.25113986753588      109.76053469497184
H          118.33711607951057      107.26854793414714      111.48435211687102
H          118.78840825058218      104.81446216969255      111.59037770075672
H          119.12173574565806      104.81509042301481      109.86358796525707
H          116.45675056034690      105.58780089827020      111.12451874289826
H          116.83254728714608      104.01672868291018      110.41984633598246
H          117.31964533540298      105.18719869816752      108.22933149378838
H          116.71318885172266      106.67971215654869      108.94670117308669
H          114.53549267029972      105.49283209362613      109.41664762819686
H          115.13423030995590      104.11641287373320      108.49580604529122
H          115.44025619694575      105.57718658931454      106.50714509464635
H          114.86562755564333      106.96219932496462      107.43435711040713
H          113.21791329194193      104.49182731258873      106.73592455794937
H          113.12712112703198      106.06107533285721      105.93920615801777
H          112.52941703036410      107.07368047775610      108.20119798586474
H          112.39303385816787      105.42615591629504      108.82057591902775
H          110.66019312573229      104.96252749122642      107.04135712105398
H          110.71195835531991      106.67012403142768      106.60702816390445
H          110.09190784696290      107.27073849921722      108.95678740666098
H          110.03933070333754      105.55455930121808      109.36530085038056
H          108.23947645059917      105.23804731362195      107.64447683879035
H          108.21285163410511      106.98293181077938      107.38861468146936
H          107.57549923435236      107.35355499649604      109.73872776243034
H          107.74861993817322      105.63073674659950      110.08308102206853
H          105.94509217988923      105.14532508609886      108.41411703801123
H          105.72397135793116      106.87938501257504      108.17853578248722
H          105.03759453281162      107.13864663597828      110.53304158834433
H          105.37874056031279      105.43920299869247      110.84685130250644
H          103.68310814589380      104.82195342087392      109.08254558491934
H          103.27625180342943      106.53007870235564      108.92943590769377
H          102.60433733700300      106.55461678591220      111.34716943271162
H          102.96749521686857      104.83107011498545      111.44368602597193
H          101.29878467209700      104.40321585279042      109.61875764337930
H          100.92954757025635      106.12337037404667      109.57933795556986
H          100.24730509695381      105.95667618420883      112.02197643003547
H          100.44568578445912      104.21234164594647      111.89916464307468
H           98.73190503635732      104.08238621574496      110.15552858026302
H           98.61743850175137      105.84005460285017      110.08528417819801
H           97.73965294814178      105.92714489275143      112.37336042947601
H           97.91447436544100      104.18073036579946      112.54593036312494
H           96.27261731897293      103.77612598522754      110.78654819759761
H           96.21591926635267      105.49005485867038      110.38384668297866
H           95.21363215968505      106.02460363077142      112.54076602992063
H           95.34928161779189      104.34835021438775      113.07233456103975
H           93.78703361857406      103.60032377407349      111.37258460271796
H           93.76970168054764      105.18319881582941      110.60460229790091
H           92.81680069410930      104.75737721362491      113.46487726667469
H           91.75497483684148      104.58208586527336      112.07016027169836
H           92.22230940400534      106.90761059362723      111.38311311116821
H           93.29155435902955      107.11572909269879      112.77303312086570
H           91.42138180877485      106.80006952573112      114.31982064210845
H           90.34882274837592      106.37127148194777      112.98859665637050
H           89.87626644827395      108.64458254644362      113.63599377631618
H           90.61657700120854      108.66087564303868      112.03574171331728
H           92.78695153116669      109.30446696872382      113.02267872363242
H           92.09552081854515      109.21004071425833      114.64466107088037
H           90.52180598452885      111.04394914898916      114.08273940906876
H           91.17007107242712      111.11105956337872      112.44487085764332
H           93.39618627812263      111.72910720620472      113.32259717928653
H           92.79658753029521      111.60499299226160      114.97852732746698
H           91.17723953949883      113.44289077826808      114.52379913805584
H           91.78306801641826      113.56533967795632      112.87338195449442
H           94.04589328442424      114.13458022099559      113.74384670368782
H           93.44045062424631      114.01029747373786      115.39627309942352
H           91.83013932369204      115.85585638477006      114.94425683139046
H           92.43696980907316      115.97687073423539      113.29404336600017
H           93.49419225530140      117.70263081236335      114.72558618013846
H           94.07639550824699      116.45393581512624      115.82691342463087
H           94.70992966315484      116.54460861634236      114.18486211768732
H           95.67870728005416      101.50133700173312      109.88549364004471
H           96.60552493510818      102.36286852490291      108.65255616999242
H           96.16182647626124      100.67733424356901      108.40415066145277
C          105.06373261515674      127.69671874161018      108.06199422347531
C          105.10436614572342      126.19196926042427      108.29501465350147
C          103.75733209690762      125.52560431181044      108.02305434463953
C          103.81337567441695      124.02175115054251      108.27484902893521
C          102.47220363441963      123.32389671592806      108.05888970652110
C          102.58506999886279      121.83318921210905      108.36653641652394
C          101.27140007464811      121.06145774441640      108.24934945368666
C          100.32266811138715      121.28412223191904      109.42567092772326
C           99.09688903260594      120.38253021022457      109.31487273165403
C           98.11231501584273      120.53688941808704      110.47184221023421
C           96.89659899644549      119.63552157234321      110.26728853992701
C           95.86555220395293      119.74299273489358      111.38830525579991
C           94.53877529230550      119.06598211743884      111.03670502976476
C           94.65741740431110      117.55838091085367      110.82530847950018
C           93.31795722945849      116.92026674736051      110.46293080380789
C           93.43952431236296      115.41041176101976      110.26951043093904
C           92.10320664259640      114.75046025956817      109.93793069006682
C           92.24893086458255      113.25063133972111      109.68707067958525
C           90.90295659264874      112.57214122055898      109.44436361428822
C           91.05263041397548      111.11248690364228      109.01896108359077
C           89.69560241441988      110.44791889071448      108.78934424128620