3258
 energy: -3427.528460479994 gnorm: 0.000966416983 xtb: 6.6.1 (8d0f1dd)
C           93.81576517974374      116.66547294152591      114.79173100268871
C           92.71708110639304      115.72367693076589      114.31732608087559
C           93.16002670567487      114.26404602181053      114.37032843231682
C           92.06453158289359      113.31224081516140      113.89714143795680
C           92.51270880148124      111.85453412715435      113.95198159324741
C           91.42451493668440      110.89161327852744      113.48358598282141
C           91.87099944290225      109.43614039547114      113.59829322682997
C           90.80891157073074      108.46379353705231      113.09246217222648
C           91.20295493652540      106.99594484737091      113.26642997777566
C           92.40453954607342      106.59555644941625      112.41353880486785
C           92.65260022374645      105.08850752141583      112.43585139498289
C           93.84262597156427      104.67389273082313      111.56821093318649
C           95.19754966727821      104.98814180408213      112.19976300143460
C           96.33679345845280      104.78128218353829      111.20698252614456
C           97.71711094710261      104.98080052700088      111.82767004437143
C           98.80161678868527      104.99518508514930      110.75343449633984
C          100.20904995879160      105.11233669778062      111.33033227624567
C          101.24946688672863      105.30656717764438      110.23204661697316
C          102.64104360065515      105.62805983264914      110.77075379989788
C          103.63981781139675      105.76967950021957      109.62626318086332
C          105.04693966051381      106.14530024201198      110.08161711917953
C          106.01992693036593      106.11943576373936      108.90559804463136
C          107.47079316714445      106.35372459747657      109.31199716869759
C          108.42093395326641      106.20393420172242      108.12529274719705
C          109.88148173762862      106.27519719536417      108.55842961208502
C          110.86156178272361      105.96579024471255      107.42855164060640
C          112.30409657914734      106.04128882099772      107.92418251747131
C          113.32724121954354      105.56824620315653      106.89474786105399
C          114.76453328935526      105.88158997632254      107.31235866468896
C          115.20378356310603      105.20105944430321      108.60720898000638
C          116.63340772159563      105.59160453034110      108.97577881531512
C          117.04907687835758      105.08685610578603      110.35601538877152
C          118.53522003613691      105.30213350745636      110.64435568509575
C          118.93753196438011      106.77273581861964      110.71891668478182
C          120.42199883626851      106.94357223220530      111.04076148686968
C          120.92614975265940      108.36471000218273      110.78443411320649
C          120.22567070450255      109.41043842416860      111.64862121460341
C          120.84946624135767      110.80220305528427      111.54617214650715
C          120.78199664357136      111.43961986199226      110.15790863703808
C          119.36135729471837      111.64869334560396      109.63840638603813
C          119.35423109353565      112.46195979970877      108.34609047366433
C          117.94492344584998      112.70307499551322      107.81086363107224
C          117.95948208956627      113.55838780089793      106.54686907993175
C          116.55989733150018      113.95523883399613      106.08314815651534
C          116.60953279360719      114.77017270905984      104.79216405500669
C          115.27851078959898      115.42145659012562      104.41727539943560
C          114.16456681962732      114.42123728102354      104.12004401542357
C          112.87856531569457      115.11696378154627      103.67837189408630
C          111.79711995791807      114.11144943516250      103.29463746819179
C          110.50703381810243      114.76187510970819      102.79600807189405
C          109.76177746911776      115.53086400871413      103.88763280810313
C          108.28065539369587      115.74146072238436      103.57486939652728
C          108.03437370743742      116.57473088063259      102.32072035249209
C          106.55284040306913      116.59704018654392      101.95289796187959
C          106.24422639932173      117.38517139635640      100.67739468558916
C          107.06109207040281      116.96783751229717       99.45309555771586
C          106.90571031837639      115.49588431533053       99.07655324828457
C          107.85337605584171      115.07870111801384       97.95037079471500
C          109.29368298122868      114.89405056181361       98.42662150226657
C          110.22689015304344      114.50289219850835       97.28399302179857
C          111.66977286102201      114.31308399625013       97.74732051152834
C          112.60009498957709      113.99071212620233       96.58007565719328
C          114.05219826976442      113.81196478974900       97.01721986827397
C          114.96499201478214      113.50644471335744       95.83078983026108
C          116.41976986060536      113.24940140457247       96.23167396700192
C          117.21938870340526      114.50691906198753       96.57932433475425
C          117.59139558204946      115.33745534330399       95.35216367916190
C          118.55695508602490      116.48122981868596       95.67101363283132
C          117.95865018274959      117.62200176760419       96.49787725827892
C          116.97554386975540      118.48729795720826       95.70983137706997
C          116.27526021098269      119.53971346890117       96.57216592210739
C          117.20915745151405      120.64664279758706       97.05730038754371
C          116.51538646718305      121.67354129928636       97.95593355223627
C          116.06123344406413      121.13994594002135       99.31724227689956
C          117.21642422820594      120.61875997150543      100.16910018896591
C          116.79895477758568      120.25068368110446      101.59288572289400
C          117.97691933409942      119.65378290627515      102.35957347874644
C          117.67323560322441      119.33442389417395      103.81976842026727
C          118.92886304186493      118.85416573934154      104.54657734840936
C          118.64983512469054      118.50546137007046      106.00498917712845
C          119.90294755591826      118.13512259813285      106.79653925894713
C          120.58756047669019      116.86792702603120      106.28787101324860
C          121.54419939221623      116.27187811495455      107.31842754646513
C          122.18573677792348      114.98879577247074      106.79801689091116
C          123.00870062292496      114.25456757546836      107.85236189890121
C          123.60567976837480      112.96381824092980      107.29638062754078
C          124.32489434099973      112.14278039032905      108.36295896913965
C          124.82984808506464      110.80703233681106      107.82131706284754
C          125.56361734313614      109.98939841285986      108.88186503480458
C          126.16988291817572      108.69537303774639      108.33719892692774
C          125.12585953785063      107.62739351597740      108.01997428499170
C          125.76438834585338      106.33727966454059      107.51029882317842
C          124.72920889181898      105.23554070408242      107.30299576143321
C          125.34353115533685      103.94932237226219      106.75477629731886
C          124.32343366408379      102.81398545584020      106.71672900713102
C          124.92684923144795      101.48586209439955      106.25855269035553
C          124.09438355369953      100.27379069416509      106.68207150171216
C          122.69512758485038      100.25120886535669      106.07295120699740
C          121.87735052625197       99.05288536488280      106.55334991386417
C          120.49167233521486       99.03020993175761      105.91334632932455
C          119.57496849248759       97.95436129150345      106.49228745487800
C          118.21406423589370       97.95771128391291      105.79659254247188
C          117.16484726461927       97.12086109185040      106.52409934796916
C          115.80080320961679       97.21740625924775      105.84092013734035
C          114.65627656684295       96.72148272345257      106.72310825439733
C          113.29200402496585       97.03166471396464      106.10814510241401
C          112.14474445394599       96.83623956486714      107.09658833056395
C          110.80522423885388       97.27034831265546      106.50553805503678
C          109.67625765186187       97.24397919391816      107.53316754316492
C          108.35448771715794       97.72772239759840      106.94102621203830
C          107.24527975204747       97.80036404551593      107.98737930576975
C          105.96546794350162       98.41889054970886      107.43151204637208
C          104.89699984160008       98.60787948366254      108.50621287842841
C          103.63197927186322       99.24602920761725      107.93771764136579
C          102.56138079104923       99.48428097634526      109.00000831805134
C          101.28807277768696      100.06903330742752      108.39295447949188
C          100.19268776871010      100.29713034591298      109.43141809261255
C           98.90207633159220      100.80768146734856      108.79565092820945
C           97.77424468028472      100.96301813359520      109.81267566273144
C           96.47546891763204      101.40563864901077      109.15003804537284
H           97.61385470526118      100.00854481565065      110.31949725787734
H           98.06654824309504      101.69225114547355      110.57212347301814
H           99.09026607732467      101.76977315238908      108.31271045269246
H           98.58604113695341      100.10954078654468      108.01737398716155
H           99.98742764566416       99.35627051187053      109.94850524341264
H          100.54086678782170      101.01507351011519      110.17787240859481
H          101.52387726303121      101.01670768155105      107.90292086128120
H          100.91546301577260       99.38931995306764      107.62327471598186
H          102.32561954254389       98.53829636672118      109.49330838358590
H          102.94778687476301      100.16472037887155      109.76281173510252
H          103.88991138777514      100.19921816224816      107.46928814665416
H          103.22509814084076       98.60048292276973      107.15627581244978
H          104.64941937906363       97.64003137927503      108.94801345898314
H          105.29540131301687       99.24018925297564      109.30384673733404
H          106.20070668603718       99.39136174760884      106.99139955901835
H          105.57086104764171       97.78762944562638      106.63276935279511
H          107.03337871189821       96.79848323757706      108.36689925004798
H          107.59302661483346       98.40292287299101      108.82804082956439
H          108.50279078544317       98.72124313144911      106.51001067924460
H          108.05173466741618       97.06449877756073      106.12846423256406
H          109.55518653163661       96.22911394110525      107.91885002698069
H          109.94417832112333       97.88878523576346      108.37453786254888
H          110.90260912543644       98.28671616068290      106.11496249722978
H          110.55000744119161       96.62312772007540      105.66419129897287
H          112.09117897414019       95.78922261463470      107.40195616753388
H          112.34674812465674       97.42933947837051      107.99244765077320
H          113.28569002632311       98.07195222596891      105.77376132960590
H          113.13145437484751       96.40791560063322      105.22668328110282
H          114.75305741849660       95.64694270241344      106.89149556265323
H          114.72303293414578       97.21379325620759      107.69607121917923
H          115.61442715457798       98.26488821412427      105.59109351927285
H          115.81363373593493       96.65845944961781      104.90283626101049
H          117.48665033380732       96.07921412477931      106.57730055723849
H          117.07460560077078       97.49306221065338      107.54723148666613
H          117.85129884923471       98.98834580673966      105.74137851169586
H          118.32753606806509       97.59274624648984      104.77346801811056
H          120.04168525026527       96.97303232805000      106.38531853339023
H          119.43693930818478       98.13923914844516      107.56035352794414
H          120.02010178510508      100.00626035916672      106.06063668949359
H          120.59778117804645       98.87389938600906      104.83797393067701
H          122.40568550337184       98.12750387556787      106.31306543392692
H          121.77444121107736       99.10027231787581      107.64042474729476
H          122.16689559694186      101.16724797425324      106.34518187132926
H          122.77481382709081      100.22445499178122      104.98392581168525
H          124.62295936042027       99.36322597766140      106.38903351933969
H          124.00965880218253      100.26476475275577      107.77210215073652
H          125.04262500582927      101.49016785910334      105.17259091429764
H          125.92386171994855      101.38198367482052      106.69462199446831
H          123.91141682577558      102.68925345897895      107.72044554727289
H          123.50215269442035      103.09387547667544      106.05447192014914
H          125.73731976134071      104.12706322527430      105.75167403207648
H          126.18276546976993      103.65606209795529      107.39113126808839
H          124.24413394456521      105.02049121016580      108.25821125179770
H          123.95579540033748      105.59006526822191      106.61676039356496
H          126.28204583543933      106.53483576602386      106.56851299431470
H          126.51100301178860      105.99560454134094      108.23136398687268
H          124.55083269096643      107.41057487719901      108.92420036638629
H          124.42765688215728      108.00142185840892      107.26848352545130
H          126.74886043593982      108.91799435096722      107.43753913267530
H          126.86258180735982      108.29203353948824      109.08083565359681
H          126.36665015215848      110.60210503439097      109.29862287462792
H          124.87699698551862      109.74824204091946      109.69696761699188
H          123.98128240092308      110.23858655777040      107.43509900134859
H          125.51006388158402      110.99091867996870      106.98689176851084
H          125.16352778859481      112.72051196037056      108.75983996357341
H          123.63447444009769      111.95168446260428      109.18730147742149
H          122.80159015589062      112.36038902041892      106.86896845050094
H          124.30081188436243      113.20366477589570      106.48758993854540
H          123.80544529366450      114.90194487800923      108.22225972396613
H          122.36343520881427      114.01116464271371      108.69919915267698
H          121.39244814605038      114.32319066523607      106.44972640095754
H          122.82067532970687      115.22502318844295      105.94118330111016
H          122.31594340395259      117.00216711473742      107.57206139630404
H          120.99154150974155      116.05356333226149      108.23552435711730
H          119.82745657892650      116.12116656385736      106.04459652944803
H          121.13581046753420      117.08291098282774      105.36877798441301
H          120.60955084421856      118.96549446129566      106.76518849480048
H          119.61630844820951      117.98540601432258      107.84078275675846
H          118.17318929879468      119.36236956653785      106.48713651281165
H          117.94553749034472      117.67042249388825      106.04359398795756
H          119.32892210373625      117.98009802630014      104.02906338658561
H          119.68799857130833      119.63920780774504      104.50391792592684
H          117.28928164799112      120.22851916565921      104.31748017370130
H          116.89911546790704      118.56466279328345      103.87615130928506
H          118.30114495068089      118.74062796769260      101.85431752423898
H          118.81223031380863      120.35713770625090      102.33035731045648
H          116.43592103232039      121.14023691045367      102.11436959030134
H          115.97839723806378      119.53061155928989      101.56129120972575
H          117.64816584783999      119.73382857283435       99.69753235423215
H          117.99623654477435      121.38380829853635      100.21086318250110
H          115.56157775722413      121.95300212084301       99.85103931916235
H          115.32271403575035      120.34899512678554       99.17736666200896
H          117.20427423188781      122.50521800425194       98.12556753242040
H          115.64422592155886      122.07203932463968       97.42950084804197
H          118.05321520926024      120.21346751092975       97.59311856226977
H          117.61103061078968      121.16923243852784       96.18532291535348
H          115.47011905601565      119.99506622968444       95.98935048132002
H          115.81867534836627      119.03906210283198       97.42595751603443
H          117.50390723406565      118.97952595984000       94.88968879962570
H          116.20942779089934      117.84588095923462       95.26958916994070
H          117.45633395584954      117.21456279711332       97.37558749814242
H          118.78065327438034      118.24791032414900       96.85161748819645
H          119.41034581168394      116.06693976628803       96.21435111468770
H          118.93692424468550      116.89395638540967       94.73309507349053
H          118.07164378149713      114.68025617137789       94.62181037949097
H          116.69105400063575      115.73647555660153       94.88415450524654
H          116.65078456559149      115.11614141305205       97.28033747494904
H          118.14130454803121      114.20193092576645       97.08124513246530
H          116.42836807396787      112.57579671882146       97.09220431050502
H          116.92497063016988      112.73536909591417       95.40950477106313
H          114.58188153190996      112.61761751543024       95.32394691871426
H          114.91895092453477      114.33064435360427       95.11722711737606
H          114.38526750415819      114.72160573363469       97.52009600125307
H          114.11304618065078      112.99372657846268       97.74016794403391
H          112.25651480350453      113.07741347450593       96.08873873168272
H          112.54493133680475      114.79897480251357       95.84649416807112
H          112.01360774505252      115.22420547562417       98.24261144108114
H          111.71220263580972      113.50449448047770       98.48176781594482
H          109.87043188815699      113.57719827038169       96.82672273616554
H          110.19724824036010      115.28136417374381       96.51754671509318
H          109.65636748352635      115.82013019486307       98.87599917709851
H          109.32139465641283      114.11971753531802       99.19816991477821
H          107.50582294058290      114.13583443254848       97.52328429075044
H          107.82670303820764      115.82976030738985       97.15740272710312
H          107.10504784797892      114.86692224512383       99.94523043839435
H          105.87289258936595      115.31718107276468       98.76812545430742
H          106.74559395751285      117.58171318967109       98.60533590404577
H          108.11212850148128      117.18994589257727       99.63447922391573
H          105.17992973927726      117.27493239877400      100.45289929224403
H          106.43198936534664      118.44509608888563      100.86107709609371
H          106.20127826593463      115.56916583614685      101.84142713110329
H          105.98727915844890      117.03608542352947      102.77964418437557
H          108.39421783076536      117.59451093578535      102.47792624346701
H          108.60068230851621      116.14079943825780      101.49882527995709
H          107.80787040648148      114.76516508149555      103.44363797770946
H          107.79974286133674      116.22479873573054      104.42970198995431
H          109.82953033573591      114.96104810131727      104.81737898921743
H          110.23859549262569      116.49759708461964      104.05497579598936
H          110.74793529651541      115.42862871536688      101.96712745187865
H          109.85348802948207      113.97694823488720      102.41058196310645
H          112.18749874530511      113.46056600614996      102.50707285726487
H          111.57126752252243      113.48245818746553      104.16004031291499
H          112.51727612047254      115.75088498271957      104.48968493716964
H          113.08850348091181      115.76065385083864      102.82162583753380
H          114.49347727394249      113.74059962646447      103.33030426814885
H          113.95643632141162      113.82139827535856      105.00820750562504
H          114.96082548447738      116.08293564481266      105.22603665803766
H          115.43518369648439      116.04250475456499      103.53123935508316
H          117.35673429971598      115.56110554531226      104.90555813163215
H          116.93748407398655      114.12378412162381      103.97726603694142
H          115.96237728967230      113.05413248472638      105.93050598253366
H          116.08138576260639      114.54870387552596      106.86515484446997
H          118.53806167483516      114.46441425481952      106.74313396353821
H          118.46687348253414      113.01236295062584      105.74710290935028
H          117.46400969417159      111.74461323123779      107.59797861999300
H          117.35336685595671      113.20860629646700      108.57709272040871
H          119.83197539633080      113.42770360681730      108.52855451542929
H          119.94485429706924      111.94226483559493      107.58818892659934
H          118.88565494168702      110.68331246648856      109.45602687516228
H          118.77594877245716      112.17327717822299      110.39645184627480
H          121.27472491146956      112.41395742327521      110.21552772500759
H          121.34199023045929      110.83324760429622      109.44356258073347
H          120.34316052273373      111.46033210189488      112.25727644246287
H          121.89860874690622      110.74148049979631      111.84715099245015
H          119.17145656031205      109.46582126748596      111.37796810476829
H          120.27830734870406      109.09234019971099      112.69165072809720
H          122.00006862650126      108.39937228599111      110.98778036783023
H          120.78044494259697      108.60230173918805      109.72873562180268
H          120.60559016747220      106.67005935682066      112.08224319365958
H          120.99985378184370      106.25291884697840      110.42016605828938
H          118.73231753318507      107.25164070761114      109.75992784684071
H          118.33732947303842      107.26878217520742      111.48371865197511
H          118.78831482792557      104.81541420782347      111.58970157323000
H          119.12112148638926      104.81579699905014      109.86278668808269
H          116.45690993372652      105.58860672399665      111.12433545661401
H          116.83224197709195      104.01763117322581      110.41937201150481
H          117.31919052882738      105.18689800258151      108.22955769434917
H          116.71331767848316      106.68006126593869      108.94608209910025
H          114.53554858832588      105.49320034421801      109.41711025908234
H          115.13424539341179      104.11720160035883      108.49595073851995
H          115.44041188110727      105.57770713173737      106.50802897988359
H          114.86576358387082      106.96274275524249      107.43503950551167
H          113.21843504622696      104.49242399468480      106.73709806213728
H          113.12725188232642      106.06137330470126      105.93976784311984
H          112.52938877430208      107.07416495995550      108.20119298528437
H          112.39308443478021      105.42650790373480      108.82064640020299
H          110.66070577712982      104.96292232785449      107.04198116097862
H          110.71228392337545      106.67036174697780      106.60728784374514
H          110.09226337244857      107.27131151787151      108.95638571373004
H          110.03962485129118      105.55499873220786      109.36513960481649
H          108.24024075911909      105.23819812152517      107.64505601959220
H          108.21305556825605      106.98300302295952      107.38892169955999
H          107.57557008361617      107.35348033140099      109.73853608934506
H          107.74892372209550      105.63063482982173      110.08287006828100
H          105.94543597161899      105.14505942893506      108.41491820726789
H          105.72451415376956      106.87903888063053      108.17859712940268
H          105.03822756263811      107.13890606521998      110.53283189480977
H          105.37905470072801      105.43941608429415      110.84668428095337
H          103.68361863703362      104.82194470048941      109.08380290318948
H          103.27683937336221      106.53018176025998      108.92975767086757
H          102.60499000689931      106.55574573654069      111.34740190271303
H          102.96829736286080      104.83202901367915      111.44392888773827
H          101.30009592909082      104.40281814905521      109.62069893184881
H          100.93025074192263      106.12281828567214      109.57928689184567
H          100.24789293578137      105.95723908728125      112.02258201017084
H          100.44621461980798      104.21287328842884      111.89936992787423
H           98.73285885152733      104.08240961273390      110.15673546467119
H           98.61816863780965      105.84000321822785      110.08523335907024
H           97.74018274332278      105.92766755957277      112.37345581358838
H           97.91506002645775      104.18103214390536      112.54553096644324
H           96.27363083837781      103.77588629246364      110.78734919422909
H           96.21673866289291      105.48953341197230      110.38337968434458
H           95.21429115253008      106.02463905516453      112.54048332884616
H           95.35014893553114      104.34816261174711      113.07156333277709
H           93.78803634793815      103.60033922541628      111.37250001670721
H           93.77070182347143      105.18279292534773      110.60401316831216
H           92.81784086352222      104.75773766240395      113.46417341089393
H           91.75600966941984      104.58282250707896      112.06928648421240
H           92.22327551315122      106.90768130802311      111.38247384788656
H           93.29248532000547      107.11618909261898      112.77202461915520
H           91.42246769251123      106.80055890708431      114.31889884292499
H           90.35015276171833      106.37153834075137      112.98727001667436
H           89.87775033218659      108.64472328974421      113.63565535765355
H           90.61701270245224      108.66103820905208      112.03497529236927
H           92.78815891201933      109.30435920242165      113.02291450820086
H           92.09505593449481      109.21046815343101      114.64406972110586
H           90.52307935192461      111.04360010437382      114.08231897639840
H           91.17028598155092      111.11109285600735      112.44402352744166
H           93.39717374783966      111.72868329539493      113.32262079129919
H           92.79615087759264      111.60489143908386      114.97791180184821
H           91.17839583296244      113.44233176794499      114.52326015258012
H           91.78356389401117      113.56515382211649      112.87257751379677
H           94.04700786367030      114.13366304883669      113.74435792750707
H           93.43969838100821      114.01029723178935      115.39616484606267
H           91.83116563027990      115.85521459065708      114.94312421418175
H           92.43768324620397      115.97618626638896      113.29277802482123
H           93.49456791482805      117.70225350969518      114.72394541536210
H           94.07504734725900      116.45385511948696      115.82655743528363
H           94.71095538560425      116.54411348786110      114.18521447693469
H           95.67959316649184      101.50219422218306      109.88547835781218
H           96.60531025195432      102.36446652861511      108.65239185556376
H           96.16318926854400      100.67848695901424      108.40421270122381
C          105.06409899546233      127.69621626129201      108.06322480649027
C          105.10520650988751      126.19148854009097      108.29596069425980
C          103.75772632901638      125.52585005374486      108.02378534690682
C          103.81375422697053      124.02182539242658      108.27524204039146
C          102.47206826302795      123.32466315256686      108.05889962450590
C          102.58513040990901      121.83382885601763      108.36667918777623
C          101.27114228617857      121.06204028422206      108.24878106557551
C          100.32247058045212      121.28473664175772      109.42545997249479
C           99.09666394409800      120.38276971410701      109.31443976131860
C           98.11216065317997      120.53726571813864      110.47178448242715
C           96.89655777310765      119.63540289599499      110.26705774433947
C           95.86579025865339      119.74256864467640      111.38864382747134
C           94.53907783913731      119.06577640481876      111.03632753879023
C           94.65788541393752      117.55809060141561      110.82426420948194
C           93.31794961442998      116.92053482099185      110.46183391544183
C           93.43967975280053      115.41047880041403      110.26857787500094
C           92.10297746192570      114.75079907754900      109.93703628109442
C           92.24907478617568      113.25076325210924      109.68632765988356
C           90.90291856532473      112.57213708054996      109.44375516029621
C           91.05327791419882      111.11239561616409      109.01832135475874
C           89.69614208270890      110.44768653837994      108.78872160917768