3536
 energy: -3716.255377731266 gnorm: 0.000659270288 xtb: 6.6.1 (8d0f1dd)
C           38.68820680288430       54.47043161977558       54.31755014817371
C           37.80130813307070       55.23712931605511       55.29413257754005
C           37.74501272837252       56.70965242092206       54.88607210320684
C           38.30289173506919       55.13005273509457       56.73952672530275
C           38.41993173631621       53.71478111191643       57.32534894359288
C           37.09719040109913       52.95759372169313       57.24235375204000
C           38.89467541167230       53.84080967965528       58.78073036135319
C           39.28270313233474       52.54041151254851       59.50254624031763
C           39.59749453544293       52.87038864085737       60.96264335920774
C           40.47441423035302       51.86481712487499       58.81403066460943
C           41.03997526470191       50.60670798481171       59.49136737398541
C           42.28030854338192       50.15656628283366       58.72125320810849
C           39.97957201582041       49.50097128239027       59.55002686718647
C           40.41107659656758       48.16013282157172       60.16550204586673
C           39.23211818266812       47.18993689288489       60.07969961522066
C           40.88329281525947       48.34478963228702       61.61205997710899
C           41.28441850043184       47.07175511587277       62.37705027670042
C           41.81080882185933       47.48507607738001       63.75171102034902
C           42.32696200429257       46.27234512042968       61.58655683177889
C           43.03113461161882       45.11398650204163       62.30900042088120
C           44.00179001943582       44.46915232419073       61.31998455650983
C           42.04419407619005       44.07366544567696       62.85088089104329
C           42.65538579064963       43.03452521967561       63.80525831670252
C           41.69065347961081       41.85691730620143       63.94650224707625
C           42.95072161123561       43.64866349670492       65.18086302479986
C           43.86932059928081       42.80322722727637       66.08518798771466
C           43.28597730688622       42.71875647467432       67.49729054287299
C           45.29453094591526       43.37052173009889       66.17128123915415
C           46.08816354940508       43.35161662914417       64.86091196743607
C           46.41410728716537       41.91738741562324       64.44112511964812
C           47.40984134820027       44.12602266168089       64.97743722421943
C           47.31139544155011       45.61568069729346       65.32953498008602
C           46.26028790263228       46.33034922084784       64.48053066171370
C           48.65831252845171       46.32153289053488       65.10888365874416
C           49.87470965742781       45.74612117058464       65.84259232628534
C           49.62836890416125       45.66756105417728       67.34955452563710
C           51.11580971607685       46.62141314204285       65.60352753670529
C           51.58968776948005       46.77326853583584       64.15288747647665
C           52.10010688353965       45.44453219991023       63.59873945658569
C           52.70966933301502       47.82176981075677       64.04884162289963
C           52.30426865503320       49.26396981623378       64.37427933656255
C           51.21443019027348       49.75415056553857       63.42000708852174
C           53.49223638019565       50.23373405878698       64.28014018783615
C           54.74123378697789       49.89952480079062       65.10688258104794
C           54.39819931101209       49.65959839151598       66.57483480802419
C           55.74627511568020       51.05491857841101       64.97659083360242
C           57.19807123507569       50.66829998360141       65.28683922452950
C           58.04339258195954       51.92573073647278       65.48555717490437
C           57.79554238053239       49.78614286903478       64.17420683509010
C           58.21992020325924       48.38945065588208       64.64234439020689
C           59.48132817335281       48.47965458043469       65.50000154144884
C           58.48720685904724       47.46814909002435       63.44524406402741
C           57.23852498238899       47.02874448208019       62.66991411165358
C           56.50035558639597       45.91834892010196       63.41322744968882
C           57.61846826871828       46.57524237402169       61.25136311787084
C           56.46161686179438       46.61162143247382       60.23735259239215
C           56.51960158718871       45.39156860629028       59.31816660184239
C           56.49189481591593       47.87355248932018       59.36351465190554
C           56.32346173500988       49.20909328517749       60.09288254363611
C           54.92111323082702       49.33025117255639       60.68401465792648
C           56.57340051782538       50.38563803207798       59.13577480824652
C           58.04767563774864       50.73380659753343       58.88045773348274
C           58.65582667260037       51.39042428167988       60.11742025986675
C           58.12846977142415       51.66135948205573       57.66015004908570
C           59.53105765675500       52.09602907853333       57.21248791808208
C           59.38700481230894       53.15305061868803       56.11614830419190
C           60.39163315833711       50.92338168234935       56.70347124024011
C           61.45732361699150       50.42821056987217       57.68808733146045
C           62.53285157108885       51.49360778411845       57.90617196106739
C           62.16152045808958       49.15730441385092       57.18956489356555
C           61.29768769837384       47.91119744176338       56.97442020972052
C           60.69564897176812       47.41501603476228       58.28745776414400
C           62.12724756403968       46.77497632221928       56.35677124420842
C           62.49738248735935       46.94728944238639       54.88014977327737
C           61.28520169985467       46.70122318266325       53.98224224383402
C           63.61026749888074       45.98128213851678       54.45018039796909
C           64.95549612637434       46.08875079319029       55.17988151337828
C           65.43354841912513       47.53492993298864       55.30333456865365
C           66.03405152588373       45.28374401379298       54.43908173515276
C           65.75061061220569       43.79132576010919       54.23946650145310
C           65.71304478181996       43.05632246551608       55.57673478689506
C           66.82047127112517       43.15664106621252       53.33687353909885
C           66.66259665310588       43.44497195461938       51.83695115157573
C           65.48521671238559       42.65957016259139       51.26450604254144
C           67.95900241959495       43.08099518045582       51.09952190350840
C           68.07892394877821       43.64263865901540       49.67399570283998
C           69.10203388804618       42.81966920311618       48.89158931734988
C           68.47597601123590       45.12321777328807       49.71331471112418
C           68.38057225281729       45.86034994730607       48.37603413688483
C           66.94889164307676       46.06539449873780       47.89689188378081
H           39.71382290464426       54.82538950309740       54.38339168571171
H           38.67216359314587       53.40401370537301       54.52402534569936
H           38.34363283037953       54.62067749961129       53.29640381602531
H           66.46954187744478       45.11689296698096       47.66773970771700
H           66.36198314222129       46.57368805842097       48.65783481172213
H           66.94402347943009       46.67609487143490       46.99635662166766
H           67.83931116367664       45.64384496230647       50.43162350556881
H           69.50404427058217       45.19222030013092       50.07956500808053
H           68.81591851105507       43.43871298595533       51.67631631914949
H           68.03023938591961       41.99081507044458       51.06004376030001
H           66.46651967054210       44.51263070764313       51.69860011620531
H           65.37607041390100       42.84015976394872       50.19823859503133
H           65.63161398616440       41.59134799855276       51.41378729589258
H           64.55606242383931       42.94742445027914       51.74856433760539
H           67.80074824124738       43.50605719930490       53.66982321134817
H           66.80322120297072       42.07183594996584       53.47330173520446
H           66.18269401070195       45.74789129433078       53.46113576782130
H           66.97245933438640       45.37994808411843       54.99136038529141
H           67.11230010573396       43.54912698302120       49.17226259217037
H           70.07721622163879       42.87079842010744       49.37283413659414
H           68.79765028294233       41.77569912180089       48.84695325068058
H           69.20429205831310       43.18171541016971       47.87186686312517
H           64.77819814076318       43.67213889338827       53.75682645748125
H           64.93979241351246       43.45732987409450       56.22611111010875
H           65.50742639815316       41.99955781593070       55.42098383266444
H           66.67049010704008       43.14735094118694       56.08604583957953
H           64.85242774432365       45.67975514387487       56.18979741956256
H           66.44500108608682       47.56046983562285       55.70445571049814
H           65.44400424476369       48.01796643877625       54.32896465072229
H           64.79545451291085       48.10918990345580       55.96864074582082
H           63.23200908969455       44.96282749422905       54.56989076379362
H           63.79409232697946       46.13738344856914       53.38273657163117
H           62.84090478715777       47.96981579248268       54.70877401311841
H           60.95973966460475       45.66471564321075       54.05919379957094
H           60.45283497756884       47.34189608191930       54.25917680658792
H           61.53253038474620       46.90065575139933       52.94187305944288
H           63.03561215170465       46.66068432286277       56.95136676509461
H           61.55730803609631       45.85002436666146       56.45163148795656
H           60.48155531822794       48.15622049903684       56.29208511253903
H           60.08003409330039       48.17899318179051       58.75290831304283
H           60.07211580529786       46.53953439569290       58.11455404404460
H           61.48272238854030       47.13930102903048       58.98637079458185
H           62.65334030103072       49.40862343319984       56.24730112340564
H           62.94636755630756       48.90530410364480       57.90844559569071
H           60.98059454197747       50.21784568363345       58.64880454696107
H           62.10604692655109       52.43610943050050       58.24012849927415
H           63.25009838421916       51.16168465290141       58.65531305676289
H           63.07207265247544       51.67720680831786       56.97888622529371
H           59.72912719774514       50.09714395483096       56.44633842910521
H           60.90263877161890       51.22238525742059       55.78495205326529
H           60.02705495501005       52.57297386195382       58.06149198752260
H           58.89066638647834       52.73440851292628       55.24349912146420
H           58.79928624155595       53.99897762865503       56.46797535567856
H           60.36280597098742       53.52425027051313       55.81007279292476
H           57.63683869403157       51.17152854577677       56.81410941192534
H           57.55042175473248       52.56212398677618       57.88847184121199
H           58.59827770994472       49.81384813478179       58.66185687648881
H           59.71996263385892       51.56707053231642       59.99085680704411
H           58.17267019981195       52.34678428019251       60.30859245804919
H           58.52861711377361       50.76147309649001       60.99508523223261
H           56.08434969455719       50.16293036010482       58.18333708087538
H           56.09104914357685       51.27972535329164       59.53999220424272
H           57.05005443712957       49.26146336679550       60.90726430648509
H           54.71367171168369       48.52054642876175       61.37856476989447
H           54.81490363032789       50.26963310700734       61.22301673106985
H           54.17080217857130       49.29978469010771       59.89645422398626
H           57.44273512155225       47.88095832416287       58.82735860917744
H           55.69716499662884       47.79335383460743       58.61637504721310
H           55.51089455300414       46.57260632698585       60.77681761700164
H           56.44100218791759       44.46977443352202       59.88910497791184
H           55.70501615243492       45.41281161977597       58.59613250009259
H           57.45887902924317       45.38038032205379       58.76833039493427
H           58.42625103445649       47.20575967504236       60.87334036072229
H           58.01560890683811       45.56000775707530       61.31490112803140
H           56.56015904598475       47.88066159689487       62.59036989585527
H           57.13058281546114       45.03608824404647       63.51279760546051
H           56.21136114019389       46.24432039175303       64.41031418394776
H           55.59686613458702       45.63361864602611       62.87923807993052
H           59.15710067734692       48.00224347491406       62.76996377567935
H           59.01737695672214       46.57613660113656       63.79019719375486
H           57.41581628992436       47.96551993704246       65.25216080723528
H           59.33902090522471       49.16287110570956       66.33355853165082
H           59.74845074244173       47.50429716671499       65.90253118843478
H           60.31712360624001       48.84128225398782       64.90304145340600
H           57.06125795636937       49.68685572764456       63.37489238964986
H           58.66859089042951       50.28152226742289       63.74231986733653
H           57.20758763010138       50.10950422831433       66.22761481733623
H           58.04736078538896       52.53109239280682       64.58115958097210
H           57.65261139799608       52.53431445177576       66.29855986971543
H           59.07108144785009       51.66129179471434       65.72243330757085
H           55.70476781512654       51.45490697470215       63.96060584602233
H           55.43723893149537       51.85767207701228       65.65146844299038
H           55.20199467684886       48.99451454687503       64.70074303261678
H           53.81513919512608       48.75134318201675       66.70272396097046
H           55.30327409239034       49.56249582774457       67.17005393274083
H           53.81911551337311       50.49315080020967       66.96784473631976
H           53.78658704590247       50.30951797822559       63.23128517835408
H           53.13786880762618       51.22244025310344       64.58831490652992
H           51.91348581141350       49.30895979429313       65.39527035164186
H           51.01990765547878       50.81100431146984       63.58404302548613
H           51.52933683951127       49.62179900407242       62.38633889465426
H           50.28209109209897       49.21522094817866       63.56843996695855
H           53.51905909352044       47.51373439224609       64.71326328583331
H           53.10252279769050       47.80464798805003       63.02851715476645
H           50.75252821914206       47.09871860735336       63.53117965687630
H           52.95411267966941       45.09515843185078       64.17487860399858
H           51.32725940187046       44.68118967226310       63.63801090921298
H           52.41017933081579       45.55523053482435       62.56228225822983
H           50.89257026992897       47.61015216445417       66.00841637441482
H           51.94365657868401       46.20916042482600       66.18894308104338
H           50.07471386515986       44.73511821141459       65.47534603372419
H           50.52516456785220       45.32523617599118       67.86293416589147
H           49.36421693818559       46.64744963618647       67.74182636832933
H           48.82512628395028       44.97376406105247       67.58396850256231
H           48.85815679216605       46.30793827590357       64.03538637795171
H           48.54513078250301       47.36646401705764       65.40992567129213
H           47.02983313558617       45.71928085801755       66.38205341614783
H           45.25525473540289       46.02438897646261       64.75716030234921
H           46.33059348096288       47.40576017156183       64.62746710159075
H           46.41208825753540       46.11547047284304       63.42517432806537
H           48.02945104513496       43.62675298140307       65.72613353993242
H           47.92491936029887       44.04018003255371       64.01734770456049
H           45.48482051276510       43.81081749035992       64.07520465997808
H           46.98102708686734       41.41220848206069       65.22132720579368
H           45.51186417117636       41.34176709554893       64.25120895491668
H           47.01489171194066       41.91364570083450       63.53346058012774
H           45.22329739367174       44.39618659385038       66.53816297976324
H           45.85230847221121       42.79804118565055       66.91844712979162
H           43.92271627777774       41.78469068453524       65.69069251179776
H           43.21053785308521       43.71175553537344       67.93692049691177
H           42.29265495904058       42.27514099785281       67.47758257611680
H           43.91707399874194       42.10815375122530       68.14042741002282
H           43.40148976931534       44.63268148323771       65.04979536890161
H           41.99400706128615       43.80545648566691       65.68594565352065
H           43.58621669923133       42.65714320677702       63.37549300850134
H           42.07171895907415       41.11803179491408       64.64762940330834
H           40.72304546536846       42.20056322258334       64.30868517744429
H           41.54017849166843       41.36653981346086       62.98661887369680
H           41.23239617023848       44.57531316522915       63.38054249148791
H           41.59967187595634       43.54996826009842       61.99992194999379
H           43.61156461460401       45.52756655506820       63.13682086174641
H           44.60553693271427       43.69994872123536       61.79323604848698
H           43.45429188698198       44.01710939176890       60.49533939490063
H           44.67246692849349       45.21926948946550       60.90740627951769
H           41.84886327308196       45.86450509131180       60.69476591422611
H           43.10146022862664       46.96958579150848       61.25476659888251
H           40.39032635268446       46.45690737335059       62.52273978252113
H           41.94167237757497       46.62368497573191       64.40062617845160
H           42.76674423755563       47.99323178393547       63.65255096700782
H           41.11076226474736       48.16399961816374       64.23588919746869
H           41.74742725188916       49.01222154557056       61.61107108636661
H           40.08604946411096       48.84253181722509       62.17283644274490
H           41.23215142348530       47.75289340501818       59.57081747880350
H           38.87235101348372       47.12015953898069       59.05439353641524
H           39.51395224586556       46.19198881692036       60.40538547086155
H           38.40899010446832       47.53267828305069       60.70440801809852
H           39.12259201092566       49.86708538071568       60.12038652544597
H           39.63350001516122       49.31036365503820       58.52961113553562
H           41.34765709969788       50.86820766787014       60.50683181343310
H           42.00997528144381       49.84585847795033       57.71503693410578
H           42.99503377070988       50.97429677721664       58.65058785243189
H           42.77254161739757       49.32568676470809       59.21724018241357
H           40.18365766710292       51.59366295823543       57.79672755842665
H           41.27964328332374       52.60120655386059       58.74109105683080
H           38.42391766952056       51.86299426751966       59.48485027833740
H           40.51149535500124       53.45672260803060       61.03332433795150
H           38.78791753826945       53.44763709015148       61.40488095705022
H           39.72147275783981       51.96590657920584       61.55209152277425
H           39.75805467603249       54.50967856280357       58.80391721999495
H           38.09644940968077       54.32281755768822       59.35318460101589
H           39.17458830609334       53.16833715193734       56.75409148018364
H           36.79497144616356       52.81078055939161       56.20864983738022
H           37.18671746993945       51.97650756361124       57.70162007786011
H           36.31132054079355       53.50756451704748       57.75709858159794
H           39.28891199358369       55.59926133191006       56.79171767849314
H           37.62841532935618       55.71051136549944       57.37652641064995
H           36.78482823075935       54.83352942382452       55.23748289906298
H           37.10750793153454       57.27640141031843       55.56122847682852
H           38.74112040694195       57.14726702616374       54.90802686855086
H           37.34968992842391       56.81290575103247       53.87778764224947
H           68.84926469237537       46.83987695957540       48.49426538265109
H           68.94629217267025       45.32481910119655       47.61137573464713
C           42.70085493405015       56.03242863632227       47.07912897374615
C           44.16861304306644       55.80892101482397       47.44588681967778
C           44.62396544758197       54.44350208557358       46.93965128503434
C           44.34027211017573       55.96072271660925       48.96092001319929
C           45.75398305879393       55.76547680633133       49.53258197563326
C           45.68553451897147       56.01928454526997       51.03711578232375
C           46.76335481158160       56.69136225084101       48.84409307758394
C           48.18762516237964       56.71477351739840       49.41855291415280
C           48.96172396875208       57.84602729800588       48.74036603519069
C           48.92130451996017       55.38334797614148       49.21727334577713
C           50.16439480193920       55.24075904368167       50.10995663892720
C           51.20905012335747       54.35650306504950       49.43420216308513
C           49.79643298475513       54.67466249113176       51.48691533018165
C           50.81929087309131       55.02333375892794       52.57946508179278
C           50.79602151818938       53.97826940441176       53.69126268928920
C           50.52516539576369       56.42773547333784       53.11808473056642
C           51.59482811605547       57.04848136832989       54.02355640555400
C           51.06757393522021       58.36128911064141       54.60011521195861
C           52.95287889901993       57.24835205252409       53.33468944977103
C           52.95634930057213       58.21007957691216       52.12886255818707
C           53.58909494637423       57.53303665208725       50.91474345421025
C           53.68931264147466       59.50723820118387       52.49427753877115
C           53.68240778906798       60.64792118760403       51.46535340557227
C           54.74923380554377       61.66496501844816       51.88129821956964
C           52.33490762005118       61.38043260264858       51.35539515139799
C           51.26470160296713       60.78494793074888       50.43061600227955
C           51.74329555891198       60.75237282367475       48.97956339445020
C           49.97864266241782       61.62462877956376       50.50084865305078
C           49.21160464157026       61.56876418249357       51.82608232010333
C           48.48661772884984       60.23456846887731       51.98530762021107
C           48.19431256072399       62.71504034101766       51.94430988993599
C           48.82473101823390       64.12195024698936       51.99175452286622
C           48.22630276569866       64.95068660733608       53.12805875467087
C           48.64558617723478       64.85433594662865       50.65296901603132
C           49.62802934780201       65.99968479133965       50.35594333729533
C           49.22824831008904       66.63175687869310       49.02206357715171
C           51.06645783859360       65.47086355492142       50.32179110530299
C           52.16915766787311       66.41722015444489       49.82725570428550
C           53.50126343233863       65.67967518985787       49.96343631016508
C           52.17544362945101       67.73879302659407       50.60389557512452
C           53.34595485146760       68.69242349746787       50.31702599801152
C           53.16624458475578       69.94826125614752       51.16928506176842
C           53.45055209625554       69.04928961968506       48.83052155721150
C           54.73695853601031       69.78453871232117       48.42740490081742
C           54.64647126018343       70.17043493120265       46.95073326104294
C           55.99583516728794       68.93700029682245       48.69753109813817
C           56.86328935144521       69.47220290734865       49.84497544338576
C           57.71785970468692       70.63791400013336       49.34851433366882
C           57.77000172399445       68.38199569008079       50.43351578560289
C           57.08549791120656       67.39892798123553       51.39027074948719
C           56.59085628864620       68.10238581077823       52.65406825596521
C           58.03916880596501       66.27197455308807       51.81726330387953
C           58.49350108964432       65.31467905475179       50.71000200810990
C           57.31761562008601       64.65875067926517       49.99510423069614
C           59.50334407217904       64.26933035413262       51.22770011066702
C           58.97334215135172       62.96196407448999       51.84264441530151
C           58.27008946652573       63.17573862511576       53.17970211042896
C           60.17397960172142       62.01140247152393       51.98169929997385
C           59.92006228252107       60.62746062744883       52.59740689735866
C           61.25288241535896       59.88084257490891       52.63481870704654
C           58.85468734903957       59.85227923846192       51.81445504622948
C           58.52740142679960       58.44886396044556       52.34255114446934
C           57.68442658830227       57.70581225189568       51.30727656917511
C           57.80530454052442       58.48140606741813       53.69609140381537
C           57.93630781073026       57.16971444103687       54.49666435938184
C           56.56995049538964       56.51853989248017       54.70829329787163
C           58.59900760458834       57.38975921202439       55.86462172539819
C           60.03893502929956       57.91226176140476       55.82432103762886
C           61.00054449137711       56.88031442516859       55.24042325216397
C           60.51686199862397       58.33029939827871       57.22846119872194
C           61.26374066498274       59.67402153133943       57.24195436053936
C           62.14161604523212       59.77525612340543       58.48711014206920
C           60.24214063374714       60.81593218478955       57.17488207910948
C           60.78809330984488       62.24880614835041       57.11633386681941
C           59.61835653672762       63.22116468857784       57.25909583049404
C           61.56654656608305       62.51207735317284       55.82415635471539
C           62.33261905640941       63.84822712422452       55.80844549925433
C           61.62057192340716       64.89714983691620       54.95551892778823
C           63.75891845301148       63.65557959002543       55.27669862112011
C           64.69954502941425       62.94453681836853       56.25734507847825
C           65.25314160791754       63.94069812308240       57.27504064647932
C           65.84822269560937       62.25657121239858       55.50697786125384
C           65.45190392794102       60.92143596105349       54.86213496042987
C           65.53492519740313       59.79288612650281       55.88981675806399
C           66.33849247420923       60.58804810854568       53.65317975729396
C           66.06354997167556       61.41293291444028       52.38982328156494
C           64.64755047837303       61.17164163349781       51.86992855325185
C           67.06820903977498       61.07336685255903       51.28024737410787
C           68.48553523702554       61.58513440738762       51.52436074106674
C           69.35744562593645       61.40047328953771       50.28722267308964
H           42.56018718212849       55.97062769073593       46.00180257180285
H           42.07053973321273       55.27878765798873       47.54812646441878
H           42.36431742106811       57.01233683569001       47.41149115273727
H           69.40481219379193       60.35004290628714       50.00823849972570
H           68.95055655812105       61.95947680212562       49.44603644725773
H           70.37131902453815       61.75246330944445       50.46715110185138
H           67.09657225619799       59.99133570244891       51.13625158086729
H           66.70877158181787       61.51606199552135       50.34720094433750
H           67.38200760963934       60.72080609183865       53.94806052076926
H           66.20190306741516       59.53336289518694       53.39969786350836
H           64.41385512083914       60.98441835260670       54.52626898970249
H           65.16237534530667       58.86116614637031       55.46870459645449
H           66.56535228062346       59.63794861675016       56.20429493059200
H           64.94220315733888       60.02603341574406       56.77103972345204
H           66.21821710602755       62.94403964823371       54.74437019388762
H           66.67063611278752       62.07067790104647       56.20258915441776
H           63.70173507770436       63.09368113620757       54.34278511482252
H           64.18886653675781       64.63065138847904       55.03331262097296
H           66.16893368724639       62.47869306963257       52.62520055694154
H           64.45915804355577       60.10629287862772       51.76254045607891
H           63.90364900064662       61.58722980259003       52.54230438507062