      -----------------------------------------------------------      
     |                   =====================                   |     
     |                           x T B                           |     
     |                   =====================                   |     
     |                         S. Grimme                         |     
     |          Mulliken Center for Theoretical Chemistry        |     
     |                    University of Bonn                     |     
      -----------------------------------------------------------      

   * xtb version 6.6.1 (8d0f1dd) compiled by 'stahn@M-Bot' on 2023-08-01

   xtb is free software: you can redistribute it and/or modify it under
   the terms of the GNU Lesser General Public License as published by
   the Free Software Foundation, either version 3 of the License, or
   (at your option) any later version.
   
   xtb is distributed in the hope that it will be useful,
   but WITHOUT ANY WARRANTY; without even the implied warranty of
   MERCHANTABILITY or FITNESS FOR A PARTICULAR PURPOSE.  See the
   GNU Lesser General Public License for more details.
   
   Cite this work as:
   * C. Bannwarth, E. Caldeweyher, S. Ehlert, A. Hansen, P. Pracht,
     J. Seibert, S. Spicher, S. Grimme, WIREs Comput. Mol. Sci., 2020, 11,
     e01493. DOI: 10.1002/wcms.1493
   
   for GFN2-xTB:
   * C. Bannwarth, S. Ehlert and S. Grimme., J. Chem. Theory Comput., 2019,
     15, 1652-1671. DOI: 10.1021/acs.jctc.8b01176
   for GFN1-xTB:
   * S. Grimme, C. Bannwarth, P. Shushkov, J. Chem. Theory Comput., 2017,
     13, 1989-2009. DOI: 10.1021/acs.jctc.7b00118
   for GFN0-xTB:
   * P. Pracht, E. Caldeweyher, S. Ehlert, S. Grimme, ChemRxiv, 2019, preprint.
     DOI: 10.26434/chemrxiv.8326202.v1
   for GFN-FF:
   * S. Spicher and S. Grimme, Angew. Chem. Int. Ed., 2020, 59, 15665-15673.
     DOI: 10.1002/anie.202004239
   
   for ALPB and GBSA implicit solvation:
   * S. Ehlert, M. Stahn, S. Spicher, S. Grimme, J. Chem. Theory Comput.,
     2021, 17, 4250-4261. DOI: 10.1021/acs.jctc.1c00471
   
   for DFT-D4:
   * E. Caldeweyher, C. Bannwarth and S. Grimme, J. Chem. Phys., 2017,
     147, 034112. DOI: 10.1063/1.4993215
   * E. Caldeweyher, S. Ehlert, A. Hansen, H. Neugebauer, S. Spicher,
     C. Bannwarth and S. Grimme, J. Chem. Phys., 2019, 150, 154122.
     DOI: 10.1063/1.5090222
   * E. Caldeweyher, J.-M. Mewes, S. Ehlert and S. Grimme, Phys. Chem. Chem. Phys.
     2020, 22, 8499-8512. DOI: 10.1039/D0CP00502A
   
   for sTDA-xTB:
   * S. Grimme and C. Bannwarth, J. Chem. Phys., 2016, 145, 054103.
     DOI: 10.1063/1.4959605
   
   in the mass-spec context:
   * V. Asgeirsson, C. Bauer and S. Grimme, Chem. Sci., 2017, 8, 4879.
     DOI: 10.1039/c7sc00601b
   * J. Koopman and S. Grimme, ACS Omega 2019, 4, 12, 15120-15133.
     DOI: 10.1021/acsomega.9b02011
   
   for metadynamics refer to:
   * S. Grimme, J. Chem. Theory Comput., 2019, 155, 2847-2862
     DOI: 10.1021/acs.jctc.9b00143
   
   for SPH calculations refer to:
   * S. Spicher and S. Grimme, J. Chem. Theory Comput., 2021, 17, 1701-1714
     DOI: 10.1021/acs.jctc.0c01306
   
   with help from (in alphabetical order)
   P. Atkinson, C. Bannwarth, F. Bohle, G. Brandenburg, E. Caldeweyher
   M. Checinski, S. Dohm, S. Ehlert, S. Ehrlich, I. Gerasimov, C. Hölzer
   A. Katbashev, J. Koopman, C. Lavigne, S. Lehtola, F. März, M. Müller,
   F. Musil, H. Neugebauer, J. Pisarek, C. Plett, P. Pracht, F. Pultar,
   J. Seibert, P. Shushkov, S. Spicher, M. Stahn, M. Steiner, T. Strunk,
   J. Stückrath, T. Rose, and J. Unsleber
   
 * started run on 2024/06/21 at 00:48:13.387     

           -------------------------------------------------
          |                Calculation Setup                |
           -------------------------------------------------

          program call               : /home/abt-grimme/AK-bin/xtb input.xyz --input input.inp --opt --gbsa water
          hostname                   : boar009.thch.uni-bonn.de
          coordinate file            : input.xyz
          omp threads                :                     8

   ID    Z sym.   atoms
    1    6 C      1-90, 273-362, 545-634, 817-906, 1089-1178, 1361-1450,
                  1633-1722, 1905-1994, 2177-2266, 2449-2538, 2721-2810,
                  2993-3082, 3265-3354
    2    1 H      91-272, 363-544, 635-816, 907-1088, 1179-1360, 1451-1632,
                  1723-1904, 1995-2176, 2267-2448, 2539-2720, 2811-2992,
                  3083-3264, 3355-3536

molecular fragmentation (1/2 indicates fragments):
111111111111111111111111111111111111111111111111111111111111111111111111
111111111111111111111111111111111111111111111111111111111111111111111111
111111111111111111111111111111111111111111111111111111111111111111111111
111111111111111111111111111111111111111111111111111111112222222222222222
222222222222222222222222222222222222222222222222222222222222222222222222
222222222222222222222222222222222222222222222222222222222222222222222222
222222222222222222222222222222222222222222222222222222222222222222222222
222222222222222222222222222222222222222222222222222222222222222222222222
222222222222222222222222222222222222222222222222222222222222222222222222
222222222222222222222222222222222222222222222222222222222222222222222222
222222222222222222222222222222222222222222222222222222222222222222222222
222222222222222222222222222222222222222222222222222222222222222222222222
222222222222222222222222222222222222222222222222222222222222222222222222
222222222222222222222222222222222222222222222222222222222222222222222222
222222222222222222222222222222222222222222222222222222222222222222222222
222222222222222222222222222222222222222222222222222222222222222222222222
222222222222222222222222222222222222222222222222222222222222222222222222
222222222222222222222222222222222222222222222222222222222222222222222222
222222222222222222222222222222222222222222222222222222222222222222222222
222222222222222222222222222222222222222222222222222222222222222222222222
222222222222222222222222222222222222222222222222222222222222222222222222
222222222222222222222222222222222222222222222222222222222222222222222222
222222222222222222222222222222222222222222222222222222222222222222222222
222222222222222222222222222222222222222222222222222222222222222222222222
222222222222222222222222222222222222222222222222222222222222222222222222
222222222222222222222222222222222222222222222222222222222222222222222222
222222222222222222222222222222222222222222222222222222222222222222222222
222222222222222222222222222222222222222222222222222222222222222222222222
222222222222222222222222222222222222222222222222222222222222222222222222
222222222222222222222222222222222222222222222222222222222222222222222222
222222222222222222222222222222222222222222222222222222222222222222222222
222222222222222222222222222222222222222222222222222222222222222222222222
222222222222222222222222222222222222222222222222222222222222222222222222
222222222222222222222222222222222222222222222222222222222222222222222222
222222222222222222222222222222222222222222222222222222222222222222222222
222222222222222222222222222222222222222222222222222222222222222222222222
222222222222222222222222222222222222222222222222222222222222222222222222
222222222222222222222222222222222222222222222222222222222222222222222222
222222222222222222222222222222222222222222222222222222222222222222222222
222222222222222222222222222222222222222222222222222222222222222222222222
222222222222222222222222222222222222222222222222222222222222222222222222
222222222222222222222222222222222222222222222222222222222222222222222222
222222222222222222222222222222222222222222222222222222222222222222222222
222222222222222222222222222222222222222222222222222222222222222222222222
222222222222222222222222222222222222222222222222222222222222222222222222
222222222222222222222222222222222222222222222222222222222222222222222222
222222222222222222222222222222222222222222222222222222222222222222222222
222222222222222222222222222222222222222222222222222222222222222222222222
222222222222222222222222222222222222222222222222222222222222222222222222
22222222
# atoms in fragment 1/2:   272  3264
 fragment masses (1/2) :     1264.41    15172.94
CMA distance (Bohr)    :  17.974
constraining FC (au)   :  0.0500

           -------------------------------------------------
          |                 G F N 2 - x T B                 |
           -------------------------------------------------

        Reference                      10.1021/acs.jctc.8b01176
      * Hamiltonian:
        H0-scaling (s, p, d)           1.850000    2.230000    2.230000
        zeta-weighting                 0.500000
      * Dispersion:
        s8                             2.700000
        a1                             0.520000
        a2                             5.000000
        s9                             5.000000
      * Repulsion:
        kExp                           1.500000    1.000000
        rExp                           1.000000
      * Coulomb:
        alpha                          2.000000
        third order                    shell-resolved
        anisotropic                    true
        a3                             3.000000
        a5                             4.000000
        cn-shift                       1.200000
        cn-exp                         4.000000
        max-rad                        5.000000

      * Solvation model:               GBSA
        Solvent                        water
        Parameter file                 internal GFN2-xTB/GBSA
        Dielectric constant                8.0200E+01
        Reference state                gsolv [1 M gas/solution]
        Free energy shift                  1.8574E-03 Eh       1.1656E+00 kcal/mol
        Temperature                        2.9815E+02 K
        Density                            1.0000E+00 kg/L
        Solvent mass                       1.8000E+01 g/mol
        Interaction kernel             Still
        Born radius scaling (c1)           1.5524E+00
        Born radii integrator          GBOBC
        Born offset                        2.4628E-02 a0       4.6540E-02 AA
        H-bond correction              true
        Ion screening                  false
        Surface tension                    1.0000E-05 Eh       1.5569E+01 dyn/cm
        Grid points                               230 per atom
q/qsh data taken from xtbrestart
CAMM data taken from xtbrestart

          ...................................................
          :                      SETUP                      :
          :.................................................:
          :  # basis functions                7046          :
          :  # atomic orbitals                7046          :
          :  # shells                         4706          :
          :  # electrons                      7046          :
          :  max. iterations                   250          :
          :  Hamiltonian                  GFN2-xTB          :
          :  restarted?                       true          :
          :  GBSA solvation                   true          :
          :  PC potential                    false          :
          :  electronic temp.          300.0000000     K    :
          :  accuracy                    1.0000000          :
          :  -> integral cutoff          0.2500000E+02      :
          :  -> integral neglect         0.1000000E-07      :
          :  -> SCF convergence          0.1000000E-05 Eh   :
          :  -> wf. convergence          0.1000000E-03 e    :
          :  Broyden damping             0.4000000          :
          ...................................................

 iter      E             dE          RMSdq      gap      omega  full diag
   1  -3764.1730973 -0.376417E+04  0.575E-05   10.57       0.0  T
   2  -3764.1730973 -0.257432E-08  0.442E-05   10.57      38.0  T
   3  -3764.1730973 -0.246564E-08  0.280E-05   10.57      60.2  T

   *** convergence criteria satisfied after 3 iterations ***

         #    Occupation            Energy/Eh            Energy/eV
      -------------------------------------------------------------
         1        2.0000           -0.6177072             -16.8087
       ...           ...                  ...                  ...
      3517        2.0000           -0.3767246             -10.2512
      3518        2.0000           -0.3761518             -10.2356
      3519        2.0000           -0.3756059             -10.2208
      3520        2.0000           -0.3753171             -10.2129
      3521        2.0000           -0.3751466             -10.2083
      3522        2.0000           -0.3728751             -10.1464
      3523        2.0000           -0.3727642             -10.1434 (HOMO)
      3524                          0.0158087               0.4302 (LUMO)
      3525                          0.0159983               0.4353
      3526                          0.0163024               0.4436
      3527                          0.0169370               0.4609
      3528                          0.0173073               0.4710
       ...                                ...                  ...
      7046                          0.3836533              10.4397
      -------------------------------------------------------------
                  HL-Gap            0.3885729 Eh           10.5736 eV
             Fermi-level           -0.1784778 Eh           -4.8566 eV

 SCC (total)                   0 d,  0 h,  8 min, 34.543 sec
 SCC setup                      ...        0 min,  1.865 sec (  0.362%)
 Dispersion                     ...        0 min,  4.699 sec (  0.913%)
 classical contributions        ...        0 min,  0.150 sec (  0.029%)
 integral evaluation            ...        0 min,  7.223 sec (  1.404%)
 iterations                     ...        3 min, 48.372 sec ( 44.384%)
 molecular gradient             ...        4 min, 21.390 sec ( 50.801%)
 printout                       ...        0 min, 10.843 sec (  2.107%)

         :::::::::::::::::::::::::::::::::::::::::::::::::::::
         ::                     SUMMARY                     ::
         :::::::::::::::::::::::::::::::::::::::::::::::::::::
         :: total energy           -3715.354372769814 Eh    ::
         :: total w/o Gsasa/hb     -3715.241495821856 Eh    ::
         :: gradient norm              0.666718375961 Eh/a0 ::
         :: HOMO-LUMO gap             10.573607500025 eV    ::
         ::.................................................::
         :: SCC energy             -3764.173097263664 Eh    ::
         :: -> isotropic ES            0.439237867037 Eh    ::
         :: -> anisotropic ES          1.494809442031 Eh    ::
         :: -> anisotropic XC          2.306355488362 Eh    ::
         :: -> dispersion             -4.675935542084 Eh    ::
         :: -> Gsolv                  -0.048171322946 Eh    ::
         ::    -> Gelec                0.064705625012 Eh    ::
         ::    -> Gsasa               -0.108073549413 Eh    ::
         ::    -> Ghb                 -0.006660841672 Eh    ::
         ::    -> Gshift               0.001857443127 Eh    ::
         :: repulsion energy          48.106248239782 Eh    ::
         :: add. restraining           0.000000000000 Eh    ::
         :: total charge              -0.000000000012 e     ::
         :::::::::::::::::::::::::::::::::::::::::::::::::::::

      ----------------------------------------------------------- 
     |              Fast Inertial Relaxation Engine              |
      ----------------------------------------------------------- 

          ...................................................
          :                      SETUP                      :
          :.................................................:
          :   energy convergence        0.5000000E-05 Eh    :
          :   grad. convergence         0.1000000E-02 Eh/a0 :
          :   optimization log               true           :
          :   writing optlog all                1     steps :
          :   Hessian reset                    20     steps :
          :   time step scaling                 5     steps :
          :   maximium step len.        1.0000000     a0    :
          :   initial time step         0.2500000     fs    :
          :   maximum time step         1.2500000     fs    :
          :   power reset thr           0.0000000     au    :
          :   alpha parameter           0.1000000           :
          :   BFGS update                   false           :
          :   preconditioning               false           :
          ...................................................

........................................................................
.............................. CYCLE    1 ..............................
........................................................................

 iter      E             dE          RMSdq      gap      omega  full diag
   1  -3764.4361184 -0.376444E+04  0.762E-03   10.58       0.0  T
   2  -3764.4361620 -0.435399E-04  0.413E-03   10.58       1.0  T
   3  -3764.4361627 -0.677504E-06  0.178E-03   10.58       1.0  T
   4  -3764.4361631 -0.484226E-06  0.434E-04   10.58       3.9  T
   5  -3764.4361634 -0.260301E-06  0.177E-04   10.58       9.5  T
     SCC iter.                  ...        6 min, 14.792 sec
     gradient                   ...        4 min, 24.932 sec
 * total energy  : -3715.4050254 Eh     change    :  -0.5065263E-01 Eh
   gradient norm :     0.6344582 Eh/a0  converged?    E=F G=F D=F
   time step     :     0.2500000 fs     power     :   0.2621861E-05
   step length   :     0.0781380 a0     speed     :   0.7560269E-02

........................................................................
.............................. CYCLE    2 ..............................
........................................................................

 iter      E             dE          RMSdq      gap      omega  full diag
   1  -3764.8240337 -0.376482E+04  0.112E-02   10.60       0.0  T
   2  -3764.8241274 -0.936608E-04  0.606E-03   10.59       1.0  T
   3  -3764.8241289 -0.151025E-05  0.261E-03   10.59       1.0  T
   4  -3764.8241299 -0.105195E-05  0.644E-04   10.59       2.6  T
   5  -3764.8241305 -0.567580E-06  0.272E-04   10.59       6.2  T
   6  -3764.8241306 -0.453988E-07  0.121E-04   10.59      13.9  T
     SCC iter.                  ...        7 min, 29.114 sec
     gradient                   ...        4 min, 21.267 sec
 * total energy  : -3715.4753372 Eh     change    :  -0.7031175E-01 Eh
   gradient norm :     0.5884392 Eh/a0  converged?    E=F G=F D=F
   time step     :     0.2500000 fs     power     :   0.3587487E-05
   step length   :     0.1152175 a0     speed     :   0.1114791E-01

........................................................................
.............................. CYCLE    3 ..............................
........................................................................

 iter      E             dE          RMSdq      gap      omega  full diag
   1  -3765.3269904 -0.376533E+04  0.145E-02   10.61       0.0  T
   2  -3765.3271438 -0.153386E-03  0.782E-03   10.61       1.0  T
   3  -3765.3271463 -0.251573E-05  0.334E-03   10.61       1.0  T
   4  -3765.3271480 -0.170987E-05  0.827E-04   10.61       2.0  T
   5  -3765.3271489 -0.934130E-06  0.354E-04   10.61       4.8  T
   6  -3765.3271490 -0.742730E-07  0.153E-04   10.60      11.0  T
     SCC iter.                  ...        7 min, 28.374 sec
     gradient                   ...        4 min, 21.800 sec
 * total energy  : -3715.5587332 Eh     change    :  -0.8339602E-01 Eh
   gradient norm :     0.5304423 Eh/a0  converged?    E=F G=F D=F
   time step     :     0.2500000 fs     power     :   0.4184740E-05
   step length   :     0.1496008 a0     speed     :   0.1447468E-01

........................................................................
.............................. CYCLE    4 ..............................
........................................................................

 iter      E             dE          RMSdq      gap      omega  full diag
   1  -3765.9323081 -0.376593E+04  0.173E-02   10.62       0.0  T
   2  -3765.9325218 -0.213727E-03  0.933E-03   10.62       1.0  T
   3  -3765.9325254 -0.363700E-05  0.393E-03   10.62       1.0  T
   4  -3765.9325278 -0.234207E-05  0.976E-04   10.62       1.7  T
   5  -3765.9325291 -0.128491E-05  0.429E-04   10.62       3.9  T
   6  -3765.9325292 -0.106862E-06  0.181E-04   10.62       9.3  T
   7  -3765.9325292 -0.469031E-07  0.122E-04   10.62      13.8  T
     SCC iter.                  ...        8 min, 41.905 sec
     gradient                   ...        4 min, 20.567 sec
 * total energy  : -3715.6476666 Eh     change    :  -0.8893342E-01 Eh
   gradient norm :     0.4640772 Eh/a0  converged?    E=F G=F D=F
   time step     :     0.2500000 fs     power     :   0.4373522E-05
   step length   :     0.1804621 a0     speed     :   0.1746068E-01

........................................................................
.............................. CYCLE    5 ..............................
........................................................................

 iter      E             dE          RMSdq      gap      omega  full diag
   1  -3766.6245508 -0.376662E+04  0.196E-02   10.63       0.0  T
   2  -3766.6248153 -0.264444E-03  0.106E-02   10.63       1.0  T
   3  -3766.6248200 -0.469962E-05  0.436E-03   10.63       1.0  T
   4  -3766.6248227 -0.275016E-05  0.107E-03   10.63       1.6  T
   5  -3766.6248242 -0.151255E-05  0.480E-04   10.63       3.5  T
   6  -3766.6248243 -0.111889E-06  0.187E-04   10.63       9.0  T
   7  -3766.6248244 -0.469945E-07  0.124E-04   10.63      13.5  T
     SCC iter.                  ...        8 min, 38.113 sec
     gradient                   ...        4 min, 22.143 sec
 * total energy  : -3715.7345700 Eh     change    :  -0.8690339E-01 Eh
   gradient norm :     0.3947242 Eh/a0  converged?    E=F G=F D=F
   time step     :     0.2500000 fs     power     :   0.4168089E-05
   step length   :     0.2070852 a0     speed     :   0.2003660E-01

........................................................................
.............................. CYCLE    6 ..............................
........................................................................

 iter      E             dE          RMSdq      gap      omega  full diag
   1  -3767.4690523 -0.376747E+04  0.237E-02   10.64       0.0  T
   2  -3767.4694157 -0.363395E-03  0.127E-02   10.63       1.0  T
   3  -3767.4694229 -0.718626E-05  0.511E-03   10.63       1.0  T
   4  -3767.4694265 -0.358930E-05  0.124E-03   10.63       1.4  T
   5  -3767.4694284 -0.191414E-05  0.588E-04   10.63       2.9  T
   6  -3767.4694286 -0.154867E-06  0.213E-04   10.63       7.9  T
   7  -3767.4694286 -0.592509E-07  0.144E-04   10.63      11.7  T
     SCC iter.                  ...        8 min, 40.058 sec
     gradient                   ...        4 min, 21.555 sec
 * total energy  : -3715.8204535 Eh     change    :  -0.8588350E-01 Eh
   gradient norm :     0.3233348 Eh/a0  converged?    E=F G=F D=F
   time step     :     0.2750000 fs     power     :   0.3561151E-05
   step length   :     0.2541765 a0     speed     :   0.2235722E-01

........................................................................
.............................. CYCLE    7 ..............................
........................................................................

 iter      E             dE          RMSdq      gap      omega  full diag
   1  -3768.4621716 -0.376846E+04  0.276E-02   10.64       0.0  T
   2  -3768.4626184 -0.446807E-03  0.147E-02   10.64       1.0  T
   3  -3768.4626290 -0.106598E-04  0.566E-03   10.64       1.0  T
   4  -3768.4626331 -0.408178E-05  0.133E-03   10.63       1.3  T
   5  -3768.4626350 -0.193197E-05  0.695E-04   10.63       2.4  T
   6  -3768.4626352 -0.199567E-06  0.227E-04   10.63       7.4  T
   7  -3768.4626353 -0.653645E-07  0.158E-04   10.63      10.6  T
     SCC iter.                  ...        8 min, 41.085 sec
     gradient                   ...        4 min, 22.074 sec
 * total energy  : -3715.8958216 Eh     change    :  -0.7536806E-01 Eh
   gradient norm :     0.2659480 Eh/a0  converged?    E=F G=F D=F
   time step     :     0.3025000 fs     power     :   0.2606230E-05
   step length   :     0.3026660 a0     speed     :   0.2420212E-01

........................................................................
.............................. CYCLE    8 ..............................
........................................................................

 iter      E             dE          RMSdq      gap      omega  full diag
   1  -3769.5696180 -0.376957E+04  0.308E-02   10.64       0.0  T
   2  -3769.5700844 -0.466363E-03  0.164E-02   10.64       1.0  T
   3  -3769.5700995 -0.151302E-04  0.582E-03   10.64       1.0  T
   4  -3769.5701034 -0.384280E-05  0.132E-03   10.64       1.3  T
   5  -3769.5701045 -0.118433E-05  0.764E-04   10.64       2.2  T
   6  -3769.5701048 -0.235206E-06  0.216E-04   10.64       7.8  T
   7  -3769.5701048 -0.572018E-07  0.158E-04   10.64      10.6  T
     SCC iter.                  ...        8 min, 36.175 sec
     gradient                   ...        4 min, 21.259 sec
 * total energy  : -3715.9523556 Eh     change    :  -0.5653405E-01 Eh
   gradient norm :     0.2427293 Eh/a0  converged?    E=F G=F D=F
   time step     :     0.3327500 fs     power     :   0.1507022E-05
   step length   :     0.3471524 a0     speed     :   0.2523581E-01

........................................................................
.............................. CYCLE    9 ..............................
........................................................................

 iter      E             dE          RMSdq      gap      omega  full diag
   1  -3770.7088745 -0.377071E+04  0.327E-02   10.65       0.0  T
   2  -3770.7092605 -0.385980E-03  0.176E-02   10.65       1.0  T
   3  -3770.7092794 -0.189026E-04  0.544E-03   10.65       1.0  T
   4  -3770.7092828 -0.338255E-05  0.131E-03   10.64       1.3  T
   5  -3770.7092833 -0.516475E-06  0.758E-04   10.64       2.2  T
   6  -3770.7092835 -0.219839E-06  0.173E-04   10.64       9.7  T
     SCC iter.                  ...        7 min, 27.117 sec
     gradient                   ...        4 min, 21.007 sec
 * total energy  : -3715.9872960 Eh     change    :  -0.3494035E-01 Eh
   gradient norm :     0.2506816 Eh/a0  converged?    E=F G=F D=F
   time step     :     0.3660250 fs     power     :   0.5692524E-06
   step length   :     0.3799330 a0     speed     :   0.2510796E-01

........................................................................
.............................. CYCLE   10 ..............................
........................................................................

 iter      E             dE          RMSdq      gap      omega  full diag
   1  -3771.7661704 -0.377177E+04  0.335E-02   10.66       0.0  T
   2  -3771.7664205 -0.250099E-03  0.186E-02   10.66       1.0  T
   3  -3771.7664365 -0.160124E-04  0.480E-03   10.66       1.0  T
   4  -3771.7664450 -0.851832E-05  0.146E-03   10.66       1.1  T
   5  -3771.7664461 -0.110482E-05  0.825E-04   10.66       2.0  T
   6  -3771.7664463 -0.142221E-06  0.145E-04   10.66      11.6  T
   7  -3771.7664463 -0.237919E-07  0.111E-04   10.66      15.2  T
     SCC iter.                  ...        8 min, 55.087 sec
     gradient                   ...        4 min, 21.107 sec
 * total energy  : -3716.0042967 Eh     change    :  -0.1700075E-01 Eh
   gradient norm :     0.2608928 Eh/a0  converged?    E=F G=F D=F
   time step     :     0.4026275 fs     power     :  -0.4580818E-07
   step length   :     0.3982307 a0     speed     :   0.2392469E-01

........................................................................
.............................. CYCLE   11 ..............................
........................................................................
 * reset velocities

 iter      E             dE          RMSdq      gap      omega  full diag
   1  -3771.7476347 -0.377175E+04  0.105E-03   10.66       0.0  T
   2  -3771.7476356 -0.834620E-06  0.641E-04   10.66       2.6  T
   3  -3771.7476356 -0.111327E-07  0.269E-04   10.66       6.3  T
     SCC iter.                  ...        3 min, 42.045 sec
     gradient                   ...        4 min, 21.381 sec
 * total energy  : -3716.0068517 Eh     change    :  -0.2555024E-02 Eh
   gradient norm :     0.2546680 Eh/a0  converged?    E=F G=F D=F
   time step     :     0.2013138 fs     power     :   0.1664014E-06
   step length   :     0.0099133 a0     speed     :   0.1191133E-02

........................................................................
.............................. CYCLE   12 ..............................
........................................................................

 iter      E             dE          RMSdq      gap      omega  full diag
   1  -3771.7104915 -0.377171E+04  0.210E-03   10.66       0.0  T
   2  -3771.7104947 -0.313235E-05  0.128E-03   10.66       1.3  T
   3  -3771.7104947 -0.275245E-07  0.519E-04   10.66       3.2  T
   4  -3771.7104948 -0.776731E-07  0.135E-04   10.66      12.4  T
     SCC iter.                  ...        4 min, 57.484 sec
     gradient                   ...        4 min, 20.435 sec
 * total energy  : -3716.0117213 Eh     change    :  -0.4869583E-02 Eh
   gradient norm :     0.2425456 Eh/a0  converged?    E=F G=F D=F
   time step     :     0.2013138 fs     power     :   0.3131079E-06
   step length   :     0.0195899 a0     speed     :   0.2353823E-02

........................................................................
.............................. CYCLE   13 ..............................
........................................................................

 iter      E             dE          RMSdq      gap      omega  full diag
   1  -3771.6559633 -0.377166E+04  0.302E-03   10.66       0.0  T
   2  -3771.6559704 -0.704812E-05  0.185E-03   10.66       1.0  T
   3  -3771.6559705 -0.990499E-07  0.781E-04   10.66       2.2  T
   4  -3771.6559706 -0.176669E-06  0.207E-04   10.66       8.1  T
     SCC iter.                  ...        5 min,  2.760 sec
     gradient                   ...        4 min, 21.172 sec
 * total energy  : -3716.0184518 Eh     change    :  -0.6730464E-02 Eh
   gradient norm :     0.2249939 Eh/a0  converged?    E=F G=F D=F
   time step     :     0.2013138 fs     power     :   0.4267514E-06
   step length   :     0.0288043 a0     speed     :   0.3460976E-02

........................................................................
.............................. CYCLE   14 ..............................
........................................................................

 iter      E             dE          RMSdq      gap      omega  full diag
   1  -3771.5854817 -0.377159E+04  0.390E-03   10.66       0.0  T
   2  -3771.5854935 -0.117894E-04  0.240E-03   10.66       1.0  T
   3  -3771.5854937 -0.171310E-06  0.101E-03   10.66       1.7  T
   4  -3771.5854940 -0.294814E-06  0.269E-04   10.66       6.3  T
   5  -3771.5854940 -0.899013E-07  0.690E-05   10.66      24.4  T
     SCC iter.                  ...        6 min, 11.128 sec
     gradient                   ...        4 min, 20.453 sec
 * total energy  : -3716.0264265 Eh     change    :  -0.7974715E-02 Eh
   gradient norm :     0.2027568 Eh/a0  converged?    E=F G=F D=F
   time step     :     0.2013138 fs     power     :   0.4976022E-06
   step length   :     0.0373456 a0     speed     :   0.4487256E-02

........................................................................
.............................. CYCLE   15 ..............................
........................................................................

 iter      E             dE          RMSdq      gap      omega  full diag
   1  -3771.5009855 -0.377150E+04  0.467E-03   10.67       0.0  T
   2  -3771.5010025 -0.170195E-04  0.287E-03   10.67       1.0  T
   3  -3771.5010028 -0.251353E-06  0.121E-03   10.67       1.4  T
   4  -3771.5010032 -0.411353E-06  0.321E-04   10.67       5.2  T
   5  -3771.5010033 -0.128289E-06  0.818E-05   10.67      20.6  T
     SCC iter.                  ...        6 min,  9.342 sec
     gradient                   ...        4 min, 19.987 sec
 * total energy  : -3716.0349338 Eh     change    :  -0.8507282E-02 Eh
   gradient norm :     0.1768918 Eh/a0  converged?    E=F G=F D=F
   time step     :     0.2013138 fs     power     :   0.5206701E-06
   step length   :     0.0450241 a0     speed     :   0.5409865E-02

........................................................................
.............................. CYCLE   16 ..............................
........................................................................

 iter      E             dE          RMSdq      gap      omega  full diag
   1  -3771.4049752 -0.377140E+04  0.531E-03   10.67       0.0  T
   2  -3771.4049973 -0.220813E-04  0.327E-03   10.67       1.0  T
   3  -3771.4049976 -0.330170E-06  0.138E-03   10.67       1.2  T
   4  -3771.4049981 -0.523578E-06  0.366E-04   10.67       4.6  T
   5  -3771.4049983 -0.165409E-06  0.933E-05   10.67      18.0  T
     SCC iter.                  ...        6 min, 10.067 sec
     gradient                   ...        4 min, 19.877 sec
 * total energy  : -3716.0432489 Eh     change    :  -0.8315138E-02 Eh
   gradient norm :     0.1489545 Eh/a0  converged?    E=F G=F D=F
   time step     :     0.2013138 fs     power     :   0.4965574E-06
   step length   :     0.0516735 a0     speed     :   0.6208828E-02

........................................................................
.............................. CYCLE   17 ..............................
........................................................................

 iter      E             dE          RMSdq      gap      omega  full diag
   1  -3771.2891593 -0.377129E+04  0.642E-03   10.68       0.0  T
   2  -3771.2891918 -0.324407E-04  0.396E-03   10.68       1.0  T
   3  -3771.2891922 -0.487153E-06  0.167E-03   10.68       1.0  T
   4  -3771.2891930 -0.751292E-06  0.443E-04   10.68       3.8  T
   5  -3771.2891932 -0.240501E-06  0.111E-04   10.68      15.1  T
     SCC iter.                  ...        6 min,  8.943 sec
     gradient                   ...        4 min, 19.232 sec
 * total energy  : -3716.0514403 Eh     change    :  -0.8191417E-02 Eh
   gradient norm :     0.1184872 Eh/a0  converged?    E=F G=F D=F
   time step     :     0.2214451 fs     power     :   0.4227477E-06
   step length   :     0.0634750 a0     speed     :   0.6933483E-02

........................................................................
.............................. CYCLE   18 ..............................
........................................................................

 iter      E             dE          RMSdq      gap      omega  full diag
   1  -3771.1557328 -0.377116E+04  0.747E-03   10.69       0.0  T
   2  -3771.1557767 -0.438923E-04  0.462E-03   10.69       1.0  T
   3  -3771.1557774 -0.657763E-06  0.194E-03   10.69       1.0  T
   4  -3771.1557784 -0.996660E-06  0.515E-04   10.69       3.3  T
   5  -3771.1557787 -0.323077E-06  0.129E-04   10.69      13.0  T
     SCC iter.                  ...        6 min, 16.330 sec
     gradient                   ...        4 min, 21.157 sec
 * total energy  : -3716.0585164 Eh     change    :  -0.7076050E-02 Eh
   gradient norm :     0.0915597 Eh/a0  converged?    E=F G=F D=F
   time step     :     0.2435896 fs     power     :   0.3026328E-06
   step length   :     0.0757221 a0     speed     :   0.7519329E-02

........................................................................
.............................. CYCLE   19 ..............................
........................................................................

 iter      E             dE          RMSdq      gap      omega  full diag
   1  -3771.0131003 -0.377101E+04  0.820E-03   10.70       0.0  T
   2  -3771.0131525 -0.522392E-04  0.511E-03   10.70       1.0  T
   3  -3771.0131532 -0.755415E-06  0.211E-03   10.70       1.0  T
   4  -3771.0131544 -0.118853E-05  0.564E-04   10.70       3.0  T
   5  -3771.0131548 -0.383232E-06  0.141E-04   10.70      11.9  T
   6  -3771.0131548 -0.151672E-07  0.932E-05   10.70      18.1  T
     SCC iter.                  ...        7 min, 20.423 sec
     gradient                   ...        4 min, 20.926 sec
 * total energy  : -3716.0635498 Eh     change    :  -0.5033457E-02 Eh
   gradient norm :     0.0814086 Eh/a0  converged?    E=F G=F D=F
   time step     :     0.2679486 fs     power     :   0.1603277E-06
   step length   :     0.0870339 a0     speed     :   0.7856919E-02

........................................................................
.............................. CYCLE   20 ..............................
........................................................................

 iter      E             dE          RMSdq      gap      omega  full diag
   1  -3770.8796110 -0.377088E+04  0.825E-03   10.71       0.0  T
   2  -3770.8796609 -0.498658E-04  0.518E-03   10.71       1.0  T
   3  -3770.8796615 -0.598927E-06  0.206E-03   10.71       1.0  T
   4  -3770.8796627 -0.122837E-05  0.552E-04   10.71       3.0  T
   5  -3770.8796631 -0.364835E-06  0.133E-04   10.71      12.6  T
   6  -3770.8796631 -0.105242E-07  0.806E-05   10.71      20.9  T
     SCC iter.                  ...        7 min, 26.220 sec
     gradient                   ...        4 min, 20.933 sec
 * total energy  : -3716.0663360 Eh     change    :  -0.2786121E-02 Eh
   gradient norm :     0.0946181 Eh/a0  converged?    E=F G=F D=F
   time step     :     0.2947435 fs     power     :   0.4749080E-07
   step length   :     0.0947861 a0     speed     :   0.7778856E-02
 * RMSD in coord.:     0.0375842 a0     energy gain  -0.7119632E+00 Eh

........................................................................
.............................. CYCLE   21 ..............................
........................................................................

 iter      E             dE          RMSdq      gap      omega  full diag
   1  -3770.7986565 -0.377080E+04  0.588E-03   10.72       0.0  T
   2  -3770.7986782 -0.216629E-04  0.373E-03   10.72       1.0  T
   3  -3770.7986783 -0.131542E-06  0.135E-03   10.72       1.2  T
   4  -3770.7986790 -0.689315E-06  0.366E-04   10.72       4.6  T
   5  -3770.7986792 -0.161568E-06  0.965E-05   10.72      17.4  T
     SCC iter.                  ...        6 min, 14.510 sec
     gradient                   ...        4 min, 19.803 sec
 * total energy  : -3716.0676327 Eh     change    :  -0.1296755E-02 Eh
   gradient norm :     0.1110833 Eh/a0  converged?    E=F G=F D=F
   time step     :     0.2500000 fs     power     :   0.2657239E-07
   step length   :     0.0751755 a0     speed     :   0.7273630E-02

........................................................................
.............................. CYCLE   22 ..............................
........................................................................

 iter      E             dE          RMSdq      gap      omega  full diag
   1  -3770.7528169 -0.377075E+04  0.485E-03   10.73       0.0  T
   2  -3770.7528270 -0.101640E-04  0.308E-03   10.73       1.0  T
   3  -3770.7528269  0.958421E-07  0.875E-04   10.73       1.9  T
   4  -3770.7528275 -0.532051E-06  0.251E-04   10.73       6.7  T
     SCC iter.                  ...        5 min,  1.740 sec
     gradient                   ...        4 min, 20.349 sec
 * total energy  : -3716.0691950 Eh     change    :  -0.1562256E-02 Eh
   gradient norm :     0.1230842 Eh/a0  converged?    E=F G=F D=F
   time step     :     0.2500000 fs     power     :   0.5914804E-07
   step length   :     0.0699152 a0     speed     :   0.6764673E-02

........................................................................
.............................. CYCLE   23 ..............................
........................................................................

 iter      E             dE          RMSdq      gap      omega  full diag
   1  -3770.7414052 -0.377074E+04  0.423E-03   10.73       0.0  T
   2  -3770.7414083 -0.313271E-05  0.264E-03   10.73       1.0  T
   3  -3770.7414082  0.108957E-06  0.403E-04   10.73       4.2  T
   4  -3770.7414085 -0.325454E-06  0.151E-04   10.73      11.2  T
     SCC iter.                  ...        4 min, 57.549 sec
     gradient                   ...        4 min, 20.534 sec
 * total energy  : -3716.0716998 Eh     change    :  -0.2504811E-02 Eh
   gradient norm :     0.1280903 Eh/a0  converged?    E=F G=F D=F
   time step     :     0.2500000 fs     power     :   0.1198218E-06
   step length   :     0.0662769 a0     speed     :   0.6412646E-02

........................................................................
.............................. CYCLE   24 ..............................
........................................................................

 iter      E             dE          RMSdq      gap      omega  full diag
   1  -3770.7619964 -0.377076E+04  0.411E-03   10.74       0.0  T
   2  -3770.7619969 -0.499382E-06  0.247E-03   10.74       1.0  T
   3  -3770.7619970 -0.913119E-07  0.185E-04   10.74       9.1  T
   4  -3770.7619970 -0.486139E-07  0.102E-04   10.74      16.4  T
     SCC iter.                  ...        4 min, 54.872 sec
     gradient                   ...        4 min, 19.365 sec
 * total energy  : -3716.0753599 Eh     change    :  -0.3660165E-02 Eh
   gradient norm :     0.1260059 Eh/a0  converged?    E=F G=F D=F
   time step     :     0.2500000 fs     power     :   0.1845729E-06
   step length   :     0.0648549 a0     speed     :   0.6275056E-02

........................................................................
.............................. CYCLE   25 ..............................
........................................................................

 iter      E             dE          RMSdq      gap      omega  full diag
   1  -3770.8112381 -0.377081E+04  0.443E-03   10.75       0.0  T
   2  -3770.8112393 -0.126696E-05  0.257E-03   10.75       1.0  T
   3  -3770.8112394 -0.362807E-07  0.347E-04   10.75       4.8  T
   4  -3770.8112395 -0.133946E-06  0.115E-04   10.75      14.7  T
     SCC iter.                  ...        5 min, 10.790 sec
     gradient                   ...        4 min, 19.448 sec
 * total energy  : -3716.0800195 Eh     change    :  -0.4659535E-02 Eh
   gradient norm :     0.1177893 Eh/a0  converged?    E=F G=F D=F
   time step     :     0.2500000 fs     power     :   0.2356815E-06
   step length   :     0.0654851 a0     speed     :   0.6336031E-02

........................................................................
.............................. CYCLE   26 ..............................
........................................................................

 iter      E             dE          RMSdq      gap      omega  full diag
   1  -3770.8942193 -0.377089E+04  0.549E-03   10.76       0.0  T
   2  -3770.8942247 -0.542214E-05  0.313E-03   10.76       1.0  T
   3  -3770.8942246  0.887776E-07  0.742E-04   10.76       2.3  T
   4  -3770.8942251 -0.421790E-06  0.170E-04   10.76       9.9  T
     SCC iter.                  ...        5 min,  0.181 sec
     gradient                   ...        4 min, 21.199 sec
 * total energy  : -3716.0858568 Eh     change    :  -0.5837289E-02 Eh
   gradient norm :     0.1035349 Eh/a0  converged?    E=F G=F D=F
   time step     :     0.2750000 fs     power     :   0.2626621E-06
   step length   :     0.0748729 a0     speed     :   0.6585778E-02

........................................................................
.............................. CYCLE   27 ..............................
........................................................................

 iter      E             dE          RMSdq      gap      omega  full diag
   1  -3771.0124871 -0.377101E+04  0.677E-03   10.76       0.0  T
   2  -3771.0125000 -0.129388E-04  0.383E-03   10.76       1.0  T
   3  -3771.0124999  0.130300E-06  0.111E-03   10.76       1.5  T
   4  -3771.0125006 -0.714896E-06  0.245E-04   10.76       6.9  T
   5  -3771.0125007 -0.943464E-07  0.119E-04   10.76      14.1  T
     SCC iter.                  ...        6 min, 11.292 sec
     gradient                   ...        4 min, 23.768 sec
 * total energy  : -3716.0923483 Eh     change    :  -0.6491499E-02 Eh
   gradient norm :     0.0855434 Eh/a0  converged?    E=F G=F D=F
   time step     :     0.3025000 fs     power     :   0.2552018E-06
   step length   :     0.0870191 a0     speed     :   0.6958318E-02

........................................................................
.............................. CYCLE   28 ..............................
........................................................................

 iter      E             dE          RMSdq      gap      omega  full diag
   1  -3771.1636963 -0.377116E+04  0.804E-03   10.77       0.0  T
   2  -3771.1637185 -0.221337E-04  0.453E-03   10.77       1.0  T
   3  -3771.1637184  0.114786E-06  0.140E-03   10.77       1.2  T
   4  -3771.1637193 -0.931301E-06  0.312E-04   10.77       5.4  T
   5  -3771.1637194 -0.156032E-06  0.132E-04   10.77      12.7  T
     SCC iter.                  ...        6 min, 15.389 sec
     gradient                   ...        4 min, 21.143 sec
 * total energy  : -3716.0986981 Eh     change    :  -0.6349807E-02 Eh
   gradient norm :     0.0702389 Eh/a0  converged?    E=F G=F D=F
   time step     :     0.3327500 fs     power     :   0.2135563E-06
   step length   :     0.1012549 a0     speed     :   0.7360599E-02

........................................................................
.............................. CYCLE   29 ..............................
........................................................................

 iter      E             dE          RMSdq      gap      omega  full diag
   1  -3771.3367695 -0.377134E+04  0.892E-03   10.78       0.0  T
   2  -3771.3367970 -0.274922E-04  0.500E-03   10.78       1.0  T
   3  -3771.3367970  0.547293E-07  0.152E-03   10.78       1.1  T
   4  -3771.3367979 -0.959236E-06  0.347E-04   10.77       4.9  T
   5  -3771.3367981 -0.189592E-06  0.142E-04   10.77      11.8  T
     SCC iter.                  ...        6 min,  9.390 sec
     gradient                   ...        4 min, 21.476 sec
 * total energy  : -3716.1042175 Eh     change    :  -0.5519470E-02 Eh
   gradient norm :     0.0672286 Eh/a0  converged?    E=F G=F D=F
   time step     :     0.3660250 fs     power     :   0.1569558E-06
   step length   :     0.1160752 a0     speed     :   0.7670854E-02

........................................................................
.............................. CYCLE   30 ..............................
........................................................................

 iter      E             dE          RMSdq      gap      omega  full diag
   1  -3771.5079853 -0.377151E+04  0.900E-03   10.78       0.0  T
   2  -3771.5080077 -0.224748E-04  0.503E-03   10.78       1.0  T
   3  -3771.5080078 -0.812283E-07  0.133E-03   10.78       1.3  T
   4  -3771.5080085 -0.646039E-06  0.304E-04   10.78       5.5  T
   5  -3771.5080086 -0.137209E-06  0.137E-04   10.78      12.3  T
     SCC iter.                  ...        6 min,  6.183 sec
     gradient                   ...        4 min, 22.347 sec
 * total energy  : -3716.1089528 Eh     change    :  -0.4735215E-02 Eh
   gradient norm :     0.0753113 Eh/a0  converged?    E=F G=F D=F
   time step     :     0.4026275 fs     power     :   0.1200676E-06
   step length   :     0.1292521 a0     speed     :   0.7765138E-02

........................................................................
.............................. CYCLE   31 ..............................
........................................................................

 iter      E             dE          RMSdq      gap      omega  full diag
   1  -3771.6498678 -0.377165E+04  0.841E-03   10.79       0.0  T
   2  -3771.6498782 -0.103834E-04  0.473E-03   10.78       1.0  T
   3  -3771.6498785 -0.307613E-06  0.860E-04   10.78       2.0  T
   4  -3771.6498787 -0.197601E-06  0.198E-04   10.78       8.5  T
     SCC iter.                  ...        5 min,  7.059 sec
     gradient                   ...        4 min, 20.420 sec
 * total energy  : -3716.1138012 Eh     change    :  -0.4848414E-02 Eh
   gradient norm :     0.0815935 Eh/a0  converged?    E=F G=F D=F
   time step     :     0.4428903 fs     power     :   0.1199294E-06
   step length   :     0.1412005 a0     speed     :   0.7711789E-02

........................................................................
.............................. CYCLE   32 ..............................
........................................................................

 iter      E             dE          RMSdq      gap      omega  full diag
   1  -3771.7395088 -0.377174E+04  0.777E-03   10.79       0.0  T
   2  -3771.7395116 -0.272700E-05  0.455E-03   10.79       1.0  T
   3  -3771.7395114  0.130608E-06  0.622E-04   10.79       2.7  T
   4  -3771.7395121 -0.682547E-06  0.187E-04   10.79       9.0  T
     SCC iter.                  ...        4 min, 57.774 sec
     gradient                   ...        4 min, 22.510 sec
 * total energy  : -3716.1196733 Eh     change    :  -0.5872097E-02 Eh
   gradient norm :     0.0776942 Eh/a0  converged?    E=F G=F D=F
   time step     :     0.4871793 fs     power     :   0.1383269E-06
   step length   :     0.1551615 a0     speed     :   0.7703894E-02

........................................................................
.............................. CYCLE   33 ..............................
........................................................................

 iter      E             dE          RMSdq      gap      omega  full diag
   1  -3771.7621481 -0.377176E+04  0.775E-03   10.80       0.0  T
   2  -3771.7621582 -0.101025E-04  0.485E-03   10.80       1.0  T
   3  -3771.7621569  0.135457E-05  0.111E-03   10.80       1.5  T
   4  -3771.7621594 -0.250546E-05  0.221E-04   10.80       7.6  T
   5  -3771.7621594 -0.323766E-07  0.124E-04   10.80      13.6  T
   6  -3771.7621594 -0.702676E-08  0.503E-05   10.80      33.4  T
     SCC iter.                  ...        7 min, 21.392 sec
     gradient                   ...        4 min, 19.594 sec
 * total energy  : -3716.1264612 Eh     change    :  -0.6787963E-02 Eh
   gradient norm :     0.0649907 Eh/a0  converged?    E=F G=F D=F
   time step     :     0.5358972 fs     power     :   0.1398476E-06
   step length   :     0.1735291 a0     speed     :   0.7832600E-02

........................................................................
.............................. CYCLE   34 ..............................
........................................................................

 iter      E             dE          RMSdq      gap      omega  full diag
   1  -3771.7203041 -0.377172E+04  0.836E-03   10.81       0.0  T
   2  -3771.7203335 -0.294321E-04  0.544E-03   10.81       1.0  T
   3  -3771.7203329  0.608689E-06  0.164E-03   10.81       1.0  T
   4  -3771.7203352 -0.226326E-05  0.394E-04   10.81       4.3  T
   5  -3771.7203354 -0.211397E-06  0.155E-04   10.81      10.9  T
   6  -3771.7203354 -0.160521E-07  0.784E-05   10.81      21.5  T
     SCC iter.                  ...        7 min, 21.123 sec
     gradient                   ...        4 min, 26.405 sec
 * total energy  : -3716.1329746 Eh     change    :  -0.6513385E-02 Eh
   gradient norm :     0.0574945 Eh/a0  converged?    E=F G=F D=F
   time step     :     0.5894869 fs     power     :   0.1094989E-06
   step length   :     0.1955961 a0     speed     :   0.8026036E-02

........................................................................
.............................. CYCLE   35 ..............................
........................................................................

 iter      E             dE          RMSdq      gap      omega  full diag
   1  -3771.6518010 -0.377165E+04  0.893E-03   10.83       0.0  T
   2  -3771.6518355 -0.344880E-04  0.571E-03   10.83       1.0  T
   3  -3771.6518354  0.638865E-07  0.158E-03   10.83       1.1  T
   4  -3771.6518369 -0.148331E-05  0.489E-04   10.83       3.4  T
   5  -3771.6518372 -0.293208E-06  0.175E-04   10.83       9.6  T
   6  -3771.6518372 -0.165946E-07  0.751E-05   10.83      22.4  T
     SCC iter.                  ...        7 min, 23.858 sec
     gradient                   ...        4 min, 22.392 sec
 * total energy  : -3716.1386208 Eh     change    :  -0.5646142E-02 Eh
   gradient norm :     0.0632742 Eh/a0  converged?    E=F G=F D=F
   time step     :     0.6484356 fs     power     :   0.8173215E-07
   step length   :     0.2171849 a0     speed     :   0.8101733E-02

........................................................................
.............................. CYCLE   36 ..............................
........................................................................

 iter      E             dE          RMSdq      gap      omega  full diag
   1  -3771.6183535 -0.377162E+04  0.991E-03   10.85       0.0  T
   2  -3771.6183690 -0.155618E-04  0.595E-03   10.85       1.0  T
   3  -3771.6183698 -0.817453E-06  0.902E-04   10.85       1.9  T
   4  -3771.6183703 -0.404458E-06  0.318E-04   10.85       5.3  T
     SCC iter.                  ...        5 min,  3.234 sec
     gradient                   ...        4 min, 21.785 sec
 * total energy  : -3716.1445048 Eh     change    :  -0.5884006E-02 Eh
   gradient norm :     0.0634308 Eh/a0  converged?    E=F G=F D=F
   time step     :     0.7132792 fs     power     :   0.8358419E-07
   step length   :     0.2375743 a0     speed     :   0.8056661E-02

........................................................................
.............................. CYCLE   37 ..............................
........................................................................

 iter      E             dE          RMSdq      gap      omega  full diag
   1  -3771.6663338 -0.377167E+04  0.119E-02   10.88       0.0  T
   2  -3771.6663418 -0.799775E-05  0.689E-03   10.88       1.0  T
   3  -3771.6663416  0.155824E-06  0.122E-03   10.88       1.4  T
   4  -3771.6663436 -0.202232E-05  0.346E-04   10.88       4.9  T
   5  -3771.6663437 -0.143395E-07  0.119E-04   10.88      14.1  T
   6  -3771.6663437 -0.593718E-08  0.324E-05   10.88      51.9  T
     SCC iter.                  ...        7 min, 24.392 sec
     gradient                   ...        4 min, 21.279 sec
 * total energy  : -3716.1509506 Eh     change    :  -0.6445823E-02 Eh
   gradient norm :     0.0519652 Eh/a0  converged?    E=F G=F D=F
   time step     :     0.7846071 fs     power     :   0.7749870E-07
   step length   :     0.2621594 a0     speed     :   0.8082177E-02

........................................................................
.............................. CYCLE   38 ..............................
........................................................................

 iter      E             dE          RMSdq      gap      omega  full diag
   1  -3771.7954524 -0.377180E+04  0.131E-02   10.90       0.0  T
   2  -3771.7954754 -0.229948E-04  0.761E-03   10.90       1.0  T
   3  -3771.7954743  0.100518E-05  0.168E-03   10.90       1.0  T
   4  -3771.7954775 -0.319543E-05  0.358E-04   10.90       4.7  T
   5  -3771.7954776 -0.105938E-06  0.180E-04   10.90       9.3  T
   6  -3771.7954777 -0.110390E-07  0.612E-05   10.90      27.5  T
     SCC iter.                  ...        7 min, 21.825 sec
     gradient                   ...        4 min, 21.986 sec
 * total energy  : -3716.1562822 Eh     change    :  -0.5331575E-02 Eh
   gradient norm :     0.0531303 Eh/a0  converged?    E=F G=F D=F
   time step     :     0.8630678 fs     power     :   0.4385860E-07
   step length   :     0.2895394 a0     speed     :   0.8114800E-02

........................................................................
.............................. CYCLE   39 ..............................
........................................................................

 iter      E             dE          RMSdq      gap      omega  full diag
   1  -3771.9305979 -0.377193E+04  0.119E-02   10.92       0.0  T
   2  -3771.9306121 -0.141966E-04  0.689E-03   10.92       1.0  T
   3  -3771.9306125 -0.425994E-06  0.101E-03   10.92       1.7  T
   4  -3771.9306132 -0.720031E-06  0.274E-04   10.92       6.1  T
   5  -3771.9306133 -0.481382E-07  0.146E-04   10.92      11.5  T
     SCC iter.                  ...        6 min, 10.726 sec
     gradient                   ...        4 min, 21.134 sec
 * total energy  : -3716.1610585 Eh     change    :  -0.4776359E-02 Eh
   gradient norm :     0.0580597 Eh/a0  converged?    E=F G=F D=F
   time step     :     0.9493746 fs     power     :   0.3937013E-07
   step length   :     0.3123660 a0     speed     :   0.7958683E-02

........................................................................
.............................. CYCLE   40 ..............................
........................................................................

 iter      E             dE          RMSdq      gap      omega  full diag
   1  -3772.0018024 -0.377200E+04  0.115E-02   10.94       0.0  T
   2  -3772.0018169 -0.145569E-04  0.686E-03   10.94       1.0  T
   3  -3772.0018151  0.183715E-05  0.153E-03   10.94       1.1  T
   4  -3772.0018194 -0.433845E-05  0.328E-04   10.95       5.1  T
   5  -3772.0018195 -0.306059E-07  0.171E-04   10.95       9.8  T
   6  -3772.0018195 -0.132895E-07  0.620E-05   10.95      27.1  T
     SCC iter.                  ...        7 min, 19.004 sec
     gradient                   ...        4 min, 20.439 sec
 * total energy  : -3716.1667186 Eh     change    :  -0.5660030E-02 Eh
   gradient norm :     0.0495727 Eh/a0  converged?    E=F G=F D=F
   time step     :     1.0443120 fs     power     :   0.4210214E-07
   step length   :     0.3392571 a0     speed     :   0.7858030E-02

........................................................................
.............................. CYCLE   41 ..............................
........................................................................

 iter      E             dE          RMSdq      gap      omega  full diag
   1  -3772.0236280 -0.377202E+04  0.125E-02   10.97       0.0  T
   2  -3772.0236580 -0.299347E-04  0.772E-03   10.97       1.0  T
   3  -3772.0236561  0.183382E-05  0.172E-03   10.97       1.0  T
   4  -3772.0236609 -0.475761E-05  0.424E-04   10.97       4.0  T
   5  -3772.0236611 -0.164237E-06  0.226E-04   10.97       7.4  T
   6  -3772.0236611 -0.330210E-07  0.996E-05   10.97      16.9  T
     SCC iter.                  ...        7 min, 12.125 sec
     gradient                   ...        4 min, 20.087 sec
 * total energy  : -3716.1715860 Eh     change    :  -0.4867426E-02 Eh
   gradient norm :     0.0498260 Eh/a0  converged?    E=F G=F D=F
   time step     :     1.1487432 fs     power     :   0.2040828E-07
   step length   :     0.3709802 a0     speed     :   0.7811652E-02

........................................................................
.............................. CYCLE   42 ..............................
........................................................................

 iter      E             dE          RMSdq      gap      omega  full diag
   1  -3772.0880672 -0.377209E+04  0.138E-02   11.00       0.0  T
   2  -3772.0880753 -0.808922E-05  0.807E-03   11.00       1.0  T
   3  -3772.0880757 -0.357029E-06  0.972E-04   11.00       1.7  T
   4  -3772.0880768 -0.107648E-05  0.319E-04   11.00       5.3  T
   5  -3772.0880768 -0.281088E-07  0.156E-04   11.00      10.8  T
     SCC iter.                  ...        6 min, 14.913 sec
     gradient                   ...        4 min, 20.465 sec
 * total energy  : -3716.1755255 Eh     change    :  -0.3939557E-02 Eh
   gradient norm :     0.0471173 Eh/a0  converged?    E=F G=F D=F
   time step     :     1.2500000 fs     power     :   0.8137498E-08
   step length   :     0.3943299 a0     speed     :   0.7630707E-02
 * RMSD in coord.:     0.0592861 a0     energy gain  -0.1091896E+00 Eh

........................................................................
.............................. CYCLE   43 ..............................
........................................................................

 iter      E             dE          RMSdq      gap      omega  full diag
   1  -3772.1013793 -0.377210E+04  0.233E-03   11.01       0.0  T
   2  -3772.1013796 -0.261034E-06  0.135E-03   11.01       1.2  T
   3  -3772.1013796  0.100845E-07  0.199E-04   11.01       8.4  T
   4  -3772.1013796 -0.540131E-07  0.523E-05   11.01      32.2  T
     SCC iter.                  ...        4 min, 50.492 sec
     gradient                   ...        4 min, 20.005 sec
 * total energy  : -3716.1760859 Eh     change    :  -0.5603563E-03 Eh
   gradient norm :     0.0474223 Eh/a0  converged?    E=F G=F D=F
   time step     :     0.2500000 fs     power     :   0.2554070E-07
   step length   :     0.0722067 a0     speed     :   0.6986386E-02

........................................................................
.............................. CYCLE   44 ..............................
........................................................................

 iter      E             dE          RMSdq      gap      omega  full diag
   1  -3772.1140768 -0.377211E+04  0.223E-03   11.01       0.0  T
   2  -3772.1140773 -0.517092E-06  0.131E-03   11.01       1.3  T
   3  -3772.1140773  0.229911E-07  0.236E-04   11.01       7.1  T
   4  -3772.1140773 -0.674736E-07  0.476E-05   11.01      35.3  T
     SCC iter.                  ...        4 min, 54.800 sec
     gradient                   ...        4 min, 20.088 sec
 * total energy  : -3716.1769135 Eh     change    :  -0.8276108E-03 Eh
   gradient norm :     0.0440590 Eh/a0  converged?    E=F G=F D=F
   time step     :     0.2500000 fs     power     :   0.3969241E-07
   step length   :     0.0671253 a0     speed     :   0.6494738E-02

........................................................................
.............................. CYCLE   45 ..............................
........................................................................

 iter      E             dE          RMSdq      gap      omega  full diag
   1  -3772.1245732 -0.377212E+04  0.238E-03   11.02       0.0  T
   2  -3772.1245740 -0.821669E-06  0.143E-03   11.02       1.2  T
   3  -3772.1245740  0.108353E-07  0.262E-04   11.02       6.4  T
   4  -3772.1245741 -0.694677E-07  0.599E-05   11.02      28.1  T
     SCC iter.                  ...        4 min, 58.893 sec
     gradient                   ...        4 min, 20.317 sec
 * total energy  : -3716.1778887 Eh     change    :  -0.9752390E-03 Eh
   gradient norm :     0.0380917 Eh/a0  converged?    E=F G=F D=F
   time step     :     0.2500000 fs     power     :   0.4606577E-07
   step length   :     0.0634038 a0     speed     :   0.6134662E-02

........................................................................
.............................. CYCLE   46 ..............................
........................................................................

 iter      E             dE          RMSdq      gap      omega  full diag
   1  -3772.1311972 -0.377213E+04  0.262E-03   11.02       0.0  T
   2  -3772.1311982 -0.100366E-05  0.160E-03   11.02       1.1  T
   3  -3772.1311982 -0.881073E-08  0.269E-04   11.02       6.3  T
   4  -3772.1311983 -0.701270E-07  0.718E-05   11.02      23.4  T
     SCC iter.                  ...        4 min, 51.811 sec
     gradient                   ...        4 min, 20.137 sec
 * total energy  : -3716.1788549 Eh     change    :  -0.9661982E-03 Eh
   gradient norm :     0.0311610 Eh/a0  converged?    E=F G=F D=F
   time step     :     0.2500000 fs     power     :   0.4375990E-07
   step length   :     0.0606737 a0     speed     :   0.5870507E-02

........................................................................
.............................. CYCLE   47 ..............................
........................................................................

 iter      E             dE          RMSdq      gap      omega  full diag
   1  -3772.1322692 -0.377213E+04  0.282E-03   11.03       0.0  T
   2  -3772.1322701 -0.978725E-06  0.171E-03   11.03       1.0  T
   3  -3772.1322702 -0.270265E-07  0.259E-04   11.03       6.5  T
   4  -3772.1322702 -0.721388E-07  0.803E-05   11.03      20.9  T
     SCC iter.                  ...        4 min, 57.828 sec
     gradient                   ...        4 min, 19.968 sec
 * total energy  : -3716.1796788 Eh     change    :  -0.8238498E-03 Eh
   gradient norm :     0.0256389 Eh/a0  converged?    E=F G=F D=F
   time step     :     0.2500000 fs     power     :   0.3500162E-07
   step length   :     0.0584813 a0     speed     :   0.5658384E-02

........................................................................
.............................. CYCLE   48 ..............................
........................................................................

 iter      E             dE          RMSdq      gap      omega  full diag
   1  -3772.1258569 -0.377213E+04  0.315E-03   11.03       0.0  T
   2  -3772.1258578 -0.942688E-06  0.190E-03   11.03       1.0  T
   3  -3772.1258578 -0.339742E-07  0.278E-04   11.03       6.0  T
   4  -3772.1258579 -0.102923E-06  0.945E-05   11.03      17.8  T
     SCC iter.                  ...        4 min, 56.976 sec
     gradient                   ...        4 min, 21.417 sec
 * total energy  : -3716.1803487 Eh     change    :  -0.6698928E-03 Eh
   gradient norm :     0.0239879 Eh/a0  converged?    E=F G=F D=F
   time step     :     0.2750000 fs     power     :   0.2292550E-07
   step length   :     0.0619699 a0     speed     :   0.5450837E-02

........................................................................
.............................. CYCLE   49 ..............................
........................................................................

 iter      E             dE          RMSdq      gap      omega  full diag
   1  -3772.1109951 -0.377211E+04  0.325E-03   11.04       0.0  T
   2  -3772.1109959 -0.808860E-06  0.192E-03   11.04       1.0  T
   3  -3772.1109959 -0.103141E-07  0.310E-04   11.04       5.4  T
   4  -3772.1109961 -0.152367E-06  0.101E-04   11.04      16.6  T
     SCC iter.                  ...        4 min, 57.593 sec
     gradient                   ...        4 min, 22.069 sec
 * total energy  : -3716.1808473 Eh     change    :  -0.4986198E-03 Eh
   gradient norm :     0.0267694 Eh/a0  converged?    E=F G=F D=F
   time step     :     0.3025000 fs     power     :   0.1381608E-07
   step length   :     0.0647728 a0     speed     :   0.5179437E-02

........................................................................
.............................. CYCLE   50 ..............................
........................................................................

 iter      E             dE          RMSdq      gap      omega  full diag
   1  -3772.0895889 -0.377209E+04  0.314E-03   11.04       0.0  T
   2  -3772.0895897 -0.787828E-06  0.182E-03   11.04       1.0  T
   3  -3772.0895897  0.126674E-07  0.332E-04   11.04       5.1  T
   4  -3772.0895898 -0.170059E-06  0.948E-05   11.04      17.7  T
     SCC iter.                  ...        4 min, 53.875 sec
     gradient                   ...        4 min, 22.284 sec
 * total energy  : -3716.1812775 Eh     change    :  -0.4302069E-03 Eh
   gradient norm :     0.0305416 Eh/a0  converged?    E=F G=F D=F
   time step     :     0.3327500 fs     power     :   0.1142290E-07
   step length   :     0.0667342 a0     speed     :   0.4851160E-02

........................................................................
.............................. CYCLE   51 ..............................
........................................................................

 iter      E             dE          RMSdq      gap      omega  full diag
   1  -3772.0649370 -0.377206E+04  0.301E-03   11.04       0.0  T
   2  -3772.0649379 -0.922795E-06  0.172E-03   11.04       1.0  T
   3  -3772.0649379  0.142077E-07  0.333E-04   11.04       5.1  T
   4  -3772.0649380 -0.139037E-06  0.808E-05   11.04      20.8  T
     SCC iter.                  ...        4 min, 56.303 sec
     gradient                   ...        4 min, 21.090 sec
 * total energy  : -3716.1817883 Eh     change    :  -0.5108160E-03 Eh
   gradient norm :     0.0324370 Eh/a0  converged?    E=F G=F D=F
   time step     :     0.3660250 fs     power     :   0.1458233E-07
   step length   :     0.0686875 a0     speed     :   0.4539229E-02

........................................................................
.............................. CYCLE   52 ..............................
........................................................................

 iter      E             dE          RMSdq      gap      omega  full diag
   1  -3772.0409309 -0.377204E+04  0.305E-03   11.05       0.0  T
   2  -3772.0409320 -0.109775E-05  0.175E-03   11.05       1.0  T
   3  -3772.0409320  0.684713E-08  0.317E-04   11.05       5.3  T
   4  -3772.0409321 -0.951545E-07  0.678E-05   11.05      24.8  T
     SCC iter.                  ...        4 min, 56.563 sec
     gradient                   ...        4 min, 22.297 sec
 * total energy  : -3716.1824812 Eh     change    :  -0.6929070E-03 Eh
   gradient norm :     0.0314003 Eh/a0  converged?    E=F G=F D=F
   time step     :     0.4026275 fs     power     :   0.1946181E-07
   step length   :     0.0715107 a0     speed     :   0.4296181E-02

........................................................................
.............................. CYCLE   53 ..............................
........................................................................

 iter      E             dE          RMSdq      gap      omega  full diag
   1  -3772.0220472 -0.377202E+04  0.333E-03   11.05       0.0  T
   2  -3772.0220484 -0.113063E-05  0.194E-03   11.05       1.0  T
   3  -3772.0220484 -0.726595E-08  0.285E-04   11.05       5.9  T
   4  -3772.0220484 -0.662071E-07  0.608E-05   11.05      27.6  T
     SCC iter.                  ...        4 min, 56.702 sec
     gradient                   ...        4 min, 21.006 sec
 * total energy  : -3716.1833504 Eh     change    :  -0.8691954E-03 Eh
   gradient norm :     0.0278355 Eh/a0  converged?    E=F G=F D=F
   time step     :     0.4428903 fs     power     :   0.2199444E-07
   step length   :     0.0757544 a0     speed     :   0.4137391E-02

........................................................................
.............................. CYCLE   54 ..............................
........................................................................

 iter      E             dE          RMSdq      gap      omega  full diag
   1  -3772.0131719 -0.377201E+04  0.372E-03   11.06       0.0  T
   2  -3772.0131728 -0.926095E-06  0.219E-03   11.06       1.0  T
   3  -3772.0131728 -0.164987E-07  0.259E-04   11.06       6.5  T
   4  -3772.0131729 -0.790642E-07  0.734E-05   11.06      22.9  T
     SCC iter.                  ...        5 min,  2.976 sec
     gradient                   ...        4 min, 21.496 sec
 * total energy  : -3716.1842778 Eh     change    :  -0.9273962E-03 Eh
   gradient norm :     0.0236740 Eh/a0  converged?    E=F G=F D=F
   time step     :     0.4871793 fs     power     :   0.1994603E-07
   step length   :     0.0814426 a0     speed     :   0.4043690E-02

........................................................................
.............................. CYCLE   55 ..............................
........................................................................

 iter      E             dE          RMSdq      gap      omega  full diag
   1  -3772.0182350 -0.377202E+04  0.396E-03   11.06       0.0  T
   2  -3772.0182357 -0.746009E-06  0.235E-03   11.06       1.0  T
   3  -3772.0182357  0.113982E-07  0.299E-04   11.06       5.6  T
   4  -3772.0182359 -0.159382E-06  0.977E-05   11.06      17.2  T
     SCC iter.                  ...        4 min, 57.229 sec
     gradient                   ...        4 min, 25.276 sec
 * total energy  : -3716.1851111 Eh     change    :  -0.8332584E-03 Eh
   gradient norm :     0.0219131 Eh/a0  converged?    E=F G=F D=F
   time step     :     0.5358972 fs     power     :   0.1454128E-07
   step length   :     0.0878912 a0     speed     :   0.3967154E-02

........................................................................
.............................. CYCLE   56 ..............................
........................................................................

 iter      E             dE          RMSdq      gap      omega  full diag
   1  -3772.0365129 -0.377204E+04  0.385E-03   11.06       0.0  T
   2  -3772.0365140 -0.109115E-05  0.227E-03   11.06       1.0  T
   3  -3772.0365140  0.218947E-07  0.362E-04   11.06       4.6  T
   4  -3772.0365142 -0.196138E-06  0.110E-04   11.06      15.3  T
     SCC iter.                  ...        4 min, 59.576 sec
     gradient                   ...        4 min, 21.997 sec
 * total energy  : -3716.1858038 Eh     change    :  -0.6927425E-03 Eh
   gradient norm :     0.0235426 Eh/a0  converged?    E=F G=F D=F
   time step     :     0.5894869 fs     power     :   0.1005755E-07
   step length   :     0.0939103 a0     speed     :   0.3853491E-02

........................................................................
.............................. CYCLE   57 ..............................
........................................................................

 iter      E             dE          RMSdq      gap      omega  full diag
   1  -3772.0607644 -0.377206E+04  0.351E-03   11.06       0.0  T
   2  -3772.0607660 -0.160963E-05  0.206E-03   11.06       1.0  T
   3  -3772.0607660 -0.201735E-07  0.383E-04   11.06       4.4  T
   4  -3772.0607662 -0.122664E-06  0.105E-04   11.06      16.0  T
     SCC iter.                  ...        4 min, 56.595 sec
     gradient                   ...        4 min, 22.296 sec
 * total energy  : -3716.1864913 Eh     change    :  -0.6874561E-03 Eh
   gradient norm :     0.0260154 Eh/a0  converged?    E=F G=F D=F
   time step     :     0.6484356 fs     power     :   0.9966653E-08
   step length   :     0.0993531 a0     speed     :   0.3706208E-02

........................................................................
.............................. CYCLE   58 ..............................
........................................................................

 iter      E             dE          RMSdq      gap      omega  full diag
   1  -3772.0807498 -0.377208E+04  0.334E-03   11.07       0.0  T
   2  -3772.0807512 -0.138363E-05  0.196E-03   11.07       1.0  T
   3  -3772.0807513 -0.489063E-07  0.327E-04   11.07       5.1  T
   4  -3772.0807513 -0.638747E-07  0.891E-05   11.07      18.9  T
     SCC iter.                  ...        4 min, 57.363 sec
     gradient                   ...        4 min, 21.288 sec
 * total energy  : -3716.1873916 Eh     change    :  -0.9002709E-03 Eh
   gradient norm :     0.0261122 Eh/a0  converged?    E=F G=F D=F
   time step     :     0.7132792 fs     power     :   0.1364116E-07
   step length   :     0.1058934 a0     speed     :   0.3591076E-02

........................................................................
.............................. CYCLE   59 ..............................
........................................................................

 iter      E             dE          RMSdq      gap      omega  full diag
   1  -3772.0866855 -0.377209E+04  0.367E-03   11.07       0.0  T
   2  -3772.0866863 -0.760039E-06  0.215E-03   11.07       1.0  T
   3  -3772.0866864 -0.656205E-07  0.282E-04   11.07       6.0  T
   4  -3772.0866864 -0.748000E-07  0.961E-05   11.07      17.5  T
     SCC iter.                  ...        4 min, 59.962 sec
     gradient                   ...        4 min, 21.289 sec
 * total energy  : -3716.1885726 Eh     change    :  -0.1181012E-02 Eh
   gradient norm :     0.0225453 Eh/a0  converged?    E=F G=F D=F
   time step     :     0.7846071 fs     power     :   0.1626474E-07
   step length   :     0.1154643 a0     speed     :   0.3559676E-02

........................................................................
.............................. CYCLE   60 ..............................
........................................................................

 iter      E             dE          RMSdq      gap      omega  full diag
   1  -3772.0724989 -0.377207E+04  0.433E-03   11.07       0.0  T
   2  -3772.0725002 -0.136442E-05  0.251E-03   11.07       1.0  T
   3  -3772.0725003 -0.839577E-07  0.402E-04   11.07       4.2  T
   4  -3772.0725004 -0.135157E-06  0.119E-04   11.07      14.1  T
     SCC iter.                  ...        4 min, 58.073 sec
     gradient                   ...        4 min, 21.856 sec
 * total energy  : -3716.1898034 Eh     change    :  -0.1230836E-02 Eh
   gradient norm :     0.0200553 Eh/a0  converged?    E=F G=F D=F
   time step     :     0.8630678 fs     power     :   0.1365991E-07
   step length   :     0.1282084 a0     speed     :   0.3593243E-02

........................................................................
.............................. CYCLE   61 ..............................
........................................................................

 iter      E             dE          RMSdq      gap      omega  full diag
   1  -3772.0426716 -0.377204E+04  0.450E-03   11.08       0.0  T
   2  -3772.0426740 -0.237879E-05  0.259E-03   11.08       1.0  T
   3  -3772.0426741 -0.108744E-06  0.490E-04   11.08       3.4  T
   4  -3772.0426743 -0.127022E-06  0.123E-04   11.08      13.7  T
     SCC iter.                  ...        4 min, 57.460 sec
     gradient                   ...        4 min, 21.214 sec
 * total energy  : -3716.1909533 Eh     change    :  -0.1149864E-02 Eh
   gradient norm :     0.0228032 Eh/a0  converged?    E=F G=F D=F
   time step     :     0.9493746 fs     power     :   0.1145950E-07
   step length   :     0.1414875 a0     speed     :   0.3604920E-02

........................................................................
.............................. CYCLE   62 ..............................
........................................................................

 iter      E             dE          RMSdq      gap      omega  full diag
   1  -3772.0151639 -0.377202E+04  0.424E-03   11.09       0.0  T
   2  -3772.0151656 -0.177251E-05  0.243E-03   11.09       1.0  T
   3  -3772.0151657 -0.967889E-07  0.444E-04   11.09       3.8  T
   4  -3772.0151659 -0.122996E-06  0.119E-04   11.09      14.2  T
     SCC iter.                  ...        4 min, 57.984 sec
     gradient                   ...        4 min, 21.008 sec
 * total energy  : -3716.1923372 Eh     change    :  -0.1383886E-02 Eh
   gradient norm :     0.0215394 Eh/a0  converged?    E=F G=F D=F
   time step     :     1.0443120 fs     power     :   0.1402503E-07
   step length   :     0.1556101 a0     speed     :   0.3604313E-02

........................................................................
.............................. CYCLE   63 ..............................
........................................................................

 iter      E             dE          RMSdq      gap      omega  full diag
   1  -3772.0136584 -0.377201E+04  0.480E-03   11.09       0.0  T
[...]
  3287   6 C     3288   6 C                                       1.5277568
  3287   6 C     3289   6 C                                       1.5339345
  3290   6 C     3291   6 C                                       1.5277252
  3290   6 C     3292   6 C                                       1.5348344
  3292   6 C     3293   6 C                                       1.5376426
  3293   6 C     3294   6 C                                       1.5265121
  3293   6 C     3295   6 C                                       1.5350081
  3295   6 C     3296   6 C                                       1.5363184
  3296   6 C     3297   6 C                                       1.5301815
  3296   6 C     3298   6 C                                       1.5328474
  3298   6 C     3299   6 C                                       1.5369015
  3299   6 C     3300   6 C                                       1.5272878
  3299   6 C     3301   6 C                                       1.5313183
  3301   6 C     3302   6 C                                       1.5347753
  3302   6 C     3303   6 C                                       1.5295307
  3302   6 C     3304   6 C                                       1.5382713
  3304   6 C     3305   6 C                                       1.5382346
  3305   6 C     3306   6 C                                       1.5268778
  3305   6 C     3307   6 C                                       1.5339961
  3307   6 C     3308   6 C                                       1.5366630
  3308   6 C     3309   6 C                                       1.5289863
  3308   6 C     3310   6 C                                       1.5337445
  3310   6 C     3311   6 C                                       1.5352239
  3311   6 C     3312   6 C                                       1.5297482
  3313   6 C     3314   6 C                                       1.5339460
  3314   6 C     3315   6 C                                       1.5280562
  3314   6 C     3316   6 C                                       1.5361096
  3316   6 C     3317   6 C                                       1.5329896
  3317   6 C     3318   6 C                                       1.5299118
  3317   6 C     3319   6 C                                       1.5350368
  3319   6 C     3320   6 C                                       1.5351475
  3320   6 C     3321   6 C                                       1.5279605
  3320   6 C     3322   6 C                                       1.5365304
  3322   6 C     3323   6 C                                       1.5319085
  3323   6 C     3324   6 C                                       1.5282803
  3323   6 C     3325   6 C                                       1.5364457
  3325   6 C     3326   6 C                                       1.5341104
  3326   6 C     3327   6 C                                       1.5289866
  3326   6 C     3328   6 C                                       1.5365728
  3328   6 C     3329   6 C                                       1.5320453
  3329   6 C     3330   6 C                                       1.5290025
  3329   6 C     3331   6 C                                       1.5345666
  3331   6 C     3332   6 C                                       1.5354634
  3332   6 C     3333   6 C                                       1.5278203
  3332   6 C     3334   6 C                                       1.5357050
  3334   6 C     3335   6 C                                       1.5353013
  3335   6 C     3336   6 C                                       1.5270326
  3335   6 C     3337   6 C                                       1.5376376
  3337   6 C     3338   6 C                                       1.5349297
  3338   6 C     3339   6 C                                       1.5277631
  3338   6 C     3340   6 C                                       1.5315139
  3340   6 C     3341   6 C                                       1.5370182
  3341   6 C     3342   6 C                                       1.5264524
  3341   6 C     3343   6 C                                       1.5374161
  3343   6 C     3344   6 C                                       1.5351544
  3344   6 C     3345   6 C                                       1.5287770
  3344   6 C     3346   6 C                                       1.5318206
  3346   6 C     3347   6 C                                       1.5361681
  3347   6 C     3348   6 C                                       1.5287931
  3347   6 C     3349   6 C                                       1.5328608
  3349   6 C     3350   6 C                                       1.5346440
  3350   6 C     3351   6 C                                       1.5282673
  3350   6 C     3352   6 C                                       1.5331558
  3352   6 C     3353   6 C                                       1.5298925
  3353   6 C     3354   6 C                                       1.5239590
  3265   6 C     3355   1 H                                       1.0862698
  3265   6 C     3356   1 H                                       1.0881225
  3265   6 C     3357   1 H                                       1.0884290
  3354   6 C     3358   1 H                                       1.0887063
  3354   6 C     3359   1 H                                       1.0868839
  3354   6 C     3360   1 H                                       1.0879565
  3352   6 C     3361   1 H                                       1.0912641
  3352   6 C     3362   1 H                                       1.0929206
  3349   6 C     3363   1 H                                       1.0923376
  3349   6 C     3364   1 H                                       1.0941099
  3347   6 C     3365   1 H                                       1.0934480
  3348   6 C     3366   1 H                                       1.0868287
  3348   6 C     3367   1 H                                       1.0883110
  3348   6 C     3368   1 H                                       1.0894192
  3346   6 C     3369   1 H                                       1.0923483
  3346   6 C     3370   1 H                                       1.0935092
  3343   6 C     3371   1 H                                       1.0945085
  3343   6 C     3372   1 H                                       1.0936806
  3350   6 C     3373   1 H                                       1.0931124
  3351   6 C     3374   1 H                                       1.0881571
  3351   6 C     3375   1 H                                       1.0863745
  3351   6 C     3376   1 H                                       1.0880581
  3344   6 C     3377   1 H                                       1.0933883
  3345   6 C     3378   1 H                                       1.0867774
  3345   6 C     3379   1 H                                       1.0883584
  3345   6 C     3380   1 H                                       1.0880202
  3341   6 C     3381   1 H                                       1.0951072
  3342   6 C     3382   1 H                                       1.0868829
  3342   6 C     3383   1 H                                       1.0864095
  3342   6 C     3384   1 H                                       1.0865543
  3340   6 C     3385   1 H                                       1.0934776
  3340   6 C     3386   1 H                                       1.0930495
  3338   6 C     3387   1 H                                       1.0929690
  3339   6 C     3388   1 H                                       1.0862709
  3339   6 C     3389   1 H                                       1.0889463
  3339   6 C     3390   1 H                                       1.0880732
  3337   6 C     3391   1 H                                       1.0911996
  3337   6 C     3392   1 H                                       1.0924292
  3335   6 C     3393   1 H                                       1.0945109
  3336   6 C     3394   1 H                                       1.0884423
  3336   6 C     3395   1 H                                       1.0873619
  3336   6 C     3396   1 H                                       1.0888861
  3334   6 C     3397   1 H                                       1.0924985
  3334   6 C     3398   1 H                                       1.0935049
  3332   6 C     3399   1 H                                       1.0957068
  3333   6 C     3400   1 H                                       1.0875498
  3333   6 C     3401   1 H                                       1.0863549
  3333   6 C     3402   1 H                                       1.0892945
  3331   6 C     3403   1 H                                       1.0931338
  3331   6 C     3404   1 H                                       1.0935086
  3329   6 C     3405   1 H                                       1.0926312
  3330   6 C     3406   1 H                                       1.0861536
  3330   6 C     3407   1 H                                       1.0884786
  3330   6 C     3408   1 H                                       1.0880709
  3328   6 C     3409   1 H                                       1.0920512
  3328   6 C     3410   1 H                                       1.0938797
  3326   6 C     3411   1 H                                       1.0931599
  3327   6 C     3412   1 H                                       1.0884118
  3327   6 C     3413   1 H                                       1.0884190
  3327   6 C     3414   1 H                                       1.0871469
  3325   6 C     3415   1 H                                       1.0925085
  3325   6 C     3416   1 H                                       1.0939910
  3323   6 C     3417   1 H                                       1.0932862
  3324   6 C     3418   1 H                                       1.0858357
  3324   6 C     3419   1 H                                       1.0880539
  3324   6 C     3420   1 H                                       1.0879768
  3322   6 C     3421   1 H                                       1.0918699
  3322   6 C     3422   1 H                                       1.0938956
  3320   6 C     3423   1 H                                       1.0946827
  3321   6 C     3424   1 H                                       1.0861188
  3321   6 C     3425   1 H                                       1.0873277
  3321   6 C     3426   1 H                                       1.0879511
  3319   6 C     3427   1 H                                       1.0929524
  3319   6 C     3428   1 H                                       1.0937454
  3317   6 C     3429   1 H                                       1.0931942
  3318   6 C     3430   1 H                                       1.0888505
  3318   6 C     3431   1 H                                       1.0867904
  3318   6 C     3432   1 H                                       1.0882618
  3316   6 C     3433   1 H                                       1.0911717
  3316   6 C     3434   1 H                                       1.0925277
  3314   6 C     3435   1 H                                       1.0941340
  3315   6 C     3436   1 H                                       1.0876116
  3315   6 C     3437   1 H                                       1.0881116
  3315   6 C     3438   1 H                                       1.0879169
  3313   6 C     3439   1 H                                       1.0899582
  3313   6 C     3440   1 H                                       1.0927167
  3311   6 C     3441   1 H                                       1.0939454
  3312   6 C     3442   1 H                                       1.0881731
  3312   6 C     3443   1 H                                       1.0886005
  3312   6 C     3444   1 H                                       1.0878182
  3310   6 C     3445   1 H                                       1.0920781
  3310   6 C     3446   1 H                                       1.0942237
  3308   6 C     3447   1 H                                       1.0933381
  3309   6 C     3448   1 H                                       1.0882648
  3309   6 C     3449   1 H                                       1.0866632
  3309   6 C     3450   1 H                                       1.0882303
  3307   6 C     3451   1 H                                       1.0930914
  3307   6 C     3452   1 H                                       1.0934525
  3305   6 C     3453   1 H                                       1.0918673
  3306   6 C     3454   1 H                                       1.0874456
  3306   6 C     3455   1 H                                       1.0874817
  3306   6 C     3456   1 H                                       1.0884989
  3304   6 C     3457   1 H                                       1.0920841
  3304   6 C     3458   1 H                                       1.0923697
  3302   6 C     3459   1 H                                       1.0943010
  3303   6 C     3460   1 H                                       1.0873792
  3303   6 C     3461   1 H                                       1.0888084
  3303   6 C     3462   1 H                                       1.0889291
  3301   6 C     3463   1 H                                       1.0926642
  3301   6 C     3464   1 H                                       1.0941402
  3299   6 C     3465   1 H                                       1.0916942
  3300   6 C     3466   1 H                                       1.0876311
  3300   6 C     3467   1 H                                       1.0868174
  3300   6 C     3468   1 H                                       1.0875399
  3298   6 C     3469   1 H                                       1.0915930
  3298   6 C     3470   1 H                                       1.0934705
  3296   6 C     3471   1 H                                       1.0935184
  3297   6 C     3472   1 H                                       1.0872759
  3297   6 C     3473   1 H                                       1.0887726
  3297   6 C     3474   1 H                                       1.0888807
  3295   6 C     3475   1 H                                       1.0929203
  3295   6 C     3476   1 H                                       1.0949174
  3293   6 C     3477   1 H                                       1.0935707
  3294   6 C     3478   1 H                                       1.0861633
  3294   6 C     3479   1 H                                       1.0883030
  3294   6 C     3480   1 H                                       1.0872994
  3292   6 C     3481   1 H                                       1.0934398
  3292   6 C     3482   1 H                                       1.0925972
  3290   6 C     3483   1 H                                       1.0939577
  3291   6 C     3484   1 H                                       1.0882689
  3291   6 C     3485   1 H                                       1.0873537
  3291   6 C     3486   1 H                                       1.0869877
  3289   6 C     3487   1 H                                       1.0927308
  3289   6 C     3488   1 H                                       1.0920856
  3287   6 C     3489   1 H                                       1.0954022
  3288   6 C     3490   1 H                                       1.0874717
  3288   6 C     3491   1 H                                       1.0877667
  3288   6 C     3492   1 H                                       1.0889299
  3286   6 C     3493   1 H                                       1.0918759
  3286   6 C     3494   1 H                                       1.0929254
  3284   6 C     3495   1 H                                       1.0934979
  3285   6 C     3496   1 H                                       1.0884070
  3285   6 C     3497   1 H                                       1.0886958
  3285   6 C     3498   1 H                                       1.0874017
  3283   6 C     3499   1 H                                       1.0924803
  3283   6 C     3500   1 H                                       1.0942092
  3281   6 C     3501   1 H                                       1.0945214
  3282   6 C     3502   1 H                                       1.0878955
  3282   6 C     3503   1 H                                       1.0872648
  3282   6 C     3504   1 H                                       1.0889775
  3280   6 C     3505   1 H                                       1.0897309
  3280   6 C     3506   1 H                                       1.0916261
  3278   6 C     3507   1 H                                       1.0944927
  3279   6 C     3508   1 H                                       1.0872418
  3279   6 C     3509   1 H                                       1.0884235
  3279   6 C     3510   1 H                                       1.0882217
  3277   6 C     3511   1 H                                       1.0899722
  3277   6 C     3512   1 H                                       1.0937758
  3275   6 C     3513   1 H                                       1.0917679
  3276   6 C     3514   1 H                                       1.0875023
  3276   6 C     3515   1 H                                       1.0886476
  3276   6 C     3516   1 H                                       1.0885234
  3274   6 C     3517   1 H                                       1.0933014
  3274   6 C     3518   1 H                                       1.0930970
  3272   6 C     3519   1 H                                       1.0964115
  3273   6 C     3520   1 H                                       1.0857968
  3273   6 C     3521   1 H                                       1.0872472
  3273   6 C     3522   1 H                                       1.0885624
  3271   6 C     3523   1 H                                       1.0935752
  3271   6 C     3524   1 H                                       1.0917465
  3269   6 C     3525   1 H                                       1.0932181
  3270   6 C     3526   1 H                                       1.0886027
  3270   6 C     3527   1 H                                       1.0858805
  3270   6 C     3528   1 H                                       1.0885475
  3268   6 C     3529   1 H                                       1.0922840
  3268   6 C     3530   1 H                                       1.0940683
  3266   6 C     3531   1 H                                       1.0935112
  3267   6 C     3532   1 H                                       1.0881214
  3267   6 C     3533   1 H                                       1.0882048
  3267   6 C     3534   1 H                                       1.0886057
  3353   6 C     3535   1 H                                       1.0916172
  3353   6 C     3536   1 H                                       1.0914733

 * 2 distinct bonds (by element types)

   Z      Z             #   av. dist./Å        max./Å        min./Å
   1 H    6 C        2366     1.0903022     1.0986346     1.0831676
   6 C    6 C        1106     1.5324069     1.5400573     1.5224312


optimized geometry written to: xtbopt.xyz


           -------------------------------------------------
          | TOTAL ENERGY            -3716.255377731266 Eh   |
          | GRADIENT NORM               0.000659270288 Eh/α |
          | HOMO-LUMO GAP              11.188349458793 eV   |
           -------------------------------------------------

------------------------------------------------------------------------
 * finished run on 2024/06/25 at 03:48:12.294     
------------------------------------------------------------------------
 total:
 * wall-time:     4 d,  2 h, 59 min, 58.905 sec
 *  cpu-time:    22 d,  8 h, 35 min, 48.564 sec
 * ratio c/w:     5.420 speedup
 SCF:
 * wall-time:     0 d,  0 h,  8 min, 34.738 sec
 *  cpu-time:     0 d,  0 h, 45 min, 55.872 sec
 * ratio c/w:     5.354 speedup
 ANC optimizer:
 * wall-time:     4 d,  2 h, 49 min, 56.656 sec
 *  cpu-time:    22 d,  7 h, 48 min,  7.636 sec
 * ratio c/w:     5.421 speedup

