3536
 energy: -3716.257404155580 gnorm: 0.000845629886 xtb: 6.6.1 (8d0f1dd)
C           65.10848555591080       54.01527886501754       45.89430724839497
C           66.26580077385188       54.91566569137628       46.31945587207319
C           67.32726004615701       54.94248501794581       45.21965098378816
C           66.91101276130544       54.44492016470792       47.62918727254658
C           65.98871938082451       54.38848236699535       48.85222576652202
C           65.48028133863238       55.78013074404078       49.22731108753921
C           66.70719078927054       53.78363111242095       50.06848630078159
C           67.27626935364836       52.37137508270362       49.88678493668501
C           66.21252332494122       51.39153942838421       49.39331526794592
C           67.85119092032403       51.83129994435075       51.20392870562682
C           68.97400473567619       52.64560880762924       51.85885873037296
C           70.11719219877337       52.91698055417125       50.88089228850962
C           69.53002929807259       51.88929532533167       53.07522108381972
C           68.59889735016564       51.81797711411247       54.29137444332436
C           68.59889960404365       53.14834101136092       55.04338614324158
C           69.02841732212022       50.69728043226507       55.24714908575517
C           68.81399633762381       49.25703557738620       54.75896531720513
C           67.35236403572425       48.99627457935735       54.40373399179586
C           69.27136542390380       48.29806972476368       55.86759820415773
C           69.57686659358122       46.85838758382969       55.43178148831321
C           69.59385146439560       45.96762161716251       56.67339658991018
C           70.91993467128283       46.79050524750630       54.69560072164943
C           71.21609183900274       45.46967338812565       53.96860334187176
C           72.71054242315508       45.40429202448739       53.65224661311246
C           70.37858764112578       45.34634865854689       52.69040735703476
C           70.39545492070997       43.95930135316401       52.03338649117322
C           69.70981422401059       44.04083032824377       50.66889758148986
C           69.72457999321746       42.88683313914741       52.91372915084496
C           70.69750661799075       41.85727433239634       53.50302865553301
C           71.21617667720720       40.92723346906089       52.40609413401025
C           70.01561919009822       41.01784556197811       54.59326327598146
C           69.82663997517274       41.73062647987435       55.93885713420558
C           71.12518422534656       41.72397020067078       56.74332222081990
C           68.69789323152341       41.06918499685757       56.74487916485581
C           67.30018818288455       41.49222535641698       56.27306242059525
C           66.94488522349320       42.87296504870540       56.82070568111509
C           66.20668393447134       40.47380008527551       56.65309463549771
C           65.36363365135901       40.03133160273470       55.44892177729545
C           64.03079238057596       39.44572085027385       55.91171252859561
C           66.12549351918719       39.00637774889151       54.59557841950880
C           65.71314297407793       38.99974996323719       53.11442956526837
C           65.89947258403517       37.60630707936497       52.51713203223563
C           66.52803484504940       40.03798619407419       52.33312800226830
C           65.98314127814693       40.35224475023152       50.92632995630593
C           66.98033477258724       39.92240754385215       49.84929727215629
C           65.67407759727685       41.84595823695965       50.75750859541224
C           64.52105102173073       42.36530176131100       51.62295632760600
C           63.17831478147394       41.82752138165463       51.12643375517751
C           64.45702676774535       43.89933837088799       51.62409437272809
C           65.69544971018988       44.65075120964163       52.12921276119416
C           66.10280682553426       44.17603802877463       53.52213951641615
C           65.42066256348846       46.15885884294185       52.18866976039120
C           65.22453842177541       46.85366878100911       50.83543965434018
C           66.57532988397281       47.25479367645610       50.24361959652470
C           64.33285223833711       48.09250337950235       50.98544470352562
C           62.86066377219579       47.78571996138745       51.28358630410556
C           62.17626648775818       47.16418773777793       50.06727874615250
C           62.09882197098165       49.05242946284042       51.69244946223904
C           62.54179476453420       49.72021943343726       52.99828876698790
C           62.47420484313520       48.74979611184120       54.17683890852081
C           61.65137990061501       50.92663517428443       53.32709160094126
C           61.56317674196497       52.03164715855970       52.27016248219556
C           62.95333957875047       52.51382234560361       51.85578379851475
C           60.77015614424145       53.23560587349307       52.80088490805885
C           59.36680858681368       52.95340767411907       53.35056424502124
C           58.45750580243264       52.37047074558156       52.27224021353761
C           58.77769221329228       54.25099042315748       53.92207355948459
C           57.61979212676752       54.04748260791094       54.90838954760564
C           56.90569030145778       55.38210217097779       55.12314445082809
C           58.08694305609592       53.46918657249459       56.26087820643860
C           57.66561338459259       52.01720226791114       56.53395570502381
C           56.14604766748961       51.90854521685693       56.66230648401948
C           58.31406705184938       51.48332063237329       57.82719344257404
C           59.56838797191443       50.60704944687007       57.68609698706967
C           60.73445356513409       51.37974802295341       57.07769995260603
C           59.33605548597393       49.30976284573294       56.90178921339790
C           58.38304408221482       48.30545639581408       57.56041129278626
C           59.01279049197277       47.70922735333355       58.81745550003426
C           58.02906356853031       47.17635173270313       56.58159085277071
C           57.01473994131885       47.56073828804243       55.49702860968360
C           55.59425601244325       47.55115941847419       56.05594035900471
C           57.10586385228763       46.59880441019264       54.30540560192912
C           58.29313015274246       46.86823244852112       53.37374306044579
C           57.99939396007105       48.06975050287946       52.47822936171594
C           58.60242007955586       45.63069178782746       52.51900328517858
C           59.37437200511859       44.53255719376995       53.26531400628166
C           60.84705076832702       44.91518103406792       53.39101822060292
C           59.22143822574570       43.18500545601020       52.54720194783740
C           59.66597310367585       41.99028146973047       53.38910549870057
C           59.50898844678553       40.67389003754271       52.63717906072147
H           64.75599572625246       54.29747330005500       44.90413152343104
H           65.42841425249667       52.97488913088614       45.85902233212168
H           64.27422327981836       54.10010313206956       46.58478627522735
H           60.10355225803894       40.67925959102497       51.72550395606191
H           59.83591353219356       39.83906076117503       53.25324608649450
H           58.46947909612550       40.50682079447723       52.36433162250209
H           58.17051755230947       43.04053100736096       52.28197888178880
H           59.79116635964849       43.20635855935071       51.61407631352559
H           57.65598273067459       45.22697417383045       52.14942327770510
H           59.18825123018840       45.92790494349867       51.64547697686623
H           59.17483242348437       47.10556442291624       53.97702565161447
H           58.84411492465897       48.27762396892645       51.82366642920531
H           57.12500268868247       47.87679382589485       51.86012445436591
H           57.80504509199714       48.96136022483053       53.06987260158030
H           57.16243290476183       45.57906369171810       54.69243910014562
H           56.18796765174069       46.66709167348247       53.71579658148303
H           58.95379963371584       46.83072452269541       56.11291403060281
H           57.62079723539447       46.33098957066774       57.14235464219787
H           58.95616889481322       44.42598813044030       54.27265127402568
H           60.95917536799640       45.87290992805946       53.89211178433091
H           61.39606611553387       44.17639105540783       53.96922355243742
H           61.29875061869350       44.99088932959471       52.40338242344248
H           57.23034139839834       48.57495381769760       55.14797891379489
H           55.31318030298294       46.54281542708743       56.35278947481633
H           55.51719732885930       48.19931993021084       56.92513106713404
H           54.88481621064975       47.90071203677314       55.30808576529043
H           57.46013175854841       48.81899791460484       57.84577402571834
H           58.32891420281324       47.01179905391907       59.29661539662334
H           59.92552605415677       47.17411780919613       58.56228325704856
H           59.26418514994062       48.48064659682048       59.53930767503327
H           58.96649954606475       49.55849179248130       55.90570126232133
H           60.30370937837594       48.81729195967499       56.76638962235450
H           59.86679472347244       50.33389770442729       58.70456960916940
H           60.52740517209889       51.64374850013208       56.04507376261032
H           60.91898511854103       52.29059530095858       57.64261352122603
H           61.64071628167766       50.77642698027382       57.09770904102405
H           58.57021177439211       52.33268666128340       58.46648081332405
H           57.57111030208530       50.90077925452333       58.37501182848124
H           57.97594915754451       51.39999669027151       55.68562357051147
H           55.84620628327249       50.86413778160742       56.72319725010481
H           55.80344779396814       52.41921558783937       57.56006915873651
H           55.64042917534801       52.34868662183864       55.80830723671945
H           59.17269466795955       53.54108256452049       56.32255041886840
H           57.68539181676876       54.08545323916491       57.06952079369489
H           56.90503108251363       53.35832335579503       54.45122937366434
H           57.58875262905289       56.11180372245178       55.55472809811737
H           56.53508533442545       55.77951672774665       54.18021833971739
H           56.06004023849992       55.26028549743179       55.79592733960997
H           59.56581835747794       54.81419159659915       54.42812256304814
H           58.42973404270214       54.86766482591011       53.08897262961121
H           59.44771530421797       52.23340802083358       54.16853859890251
H           58.41387837148267       53.03554799544459       51.41224645292113
H           58.81745613904921       51.40093735278600       51.93651882999301
H           57.44636895395993       52.23714252341626       52.65051201742240
H           61.35827982396472       53.69874703093554       53.59637487165482
H           60.68333529149749       53.97202946997582       51.99708687706073
H           61.05311429846003       51.64197319358750       51.38377148912255
H           63.53362602605173       52.80293699736436       52.72991970489674
H           63.50114791086342       51.73494840784431       51.33160848627523
H           62.87742416433417       53.37749729356180       51.19806941464360
H           60.64712861578625       50.54570277919967       53.52388447724478
H           62.02393386849197       51.37467445239191       54.25255377848097
H           63.57573337032596       50.06442100005943       52.90198705754816
H           61.48348817050961       48.30421510192398       54.24367151563687
H           63.20894139969374       47.95557389082148       54.08074940048148
H           62.66958341434340       49.27750536577164       55.10865973247438
H           62.18749799156545       49.76969969392594       50.87551427368567
H           61.04087418298190       48.79474480794673       51.79228229285870
H           62.79587871434919       47.06349073881860       52.10026290079586
H           62.61863573161347       46.20339310643202       49.81640798552561
H           61.11777887312138       47.00596092149269       50.26491720698733
H           62.26510242578182       47.81922072798103       49.20377457367247
H           64.74979142041475       48.70410940141529       51.78739811504425
H           64.38288711963511       48.68030866042655       50.06491638245053
H           64.75009510452871       46.16536921410946       50.13321045582244
H           67.23465048984632       46.39351298924356       50.16184301528215
H           66.45026050891836       47.67739580160512       49.24828493472015
H           67.06121744015262       47.99868254366250       50.87284256714128
H           64.53942030935994       46.30821757466809       52.81413880012602
H           66.25683055288718       46.64574521522043       52.69602641754160
H           66.52960601150357       44.47893402809327       51.44111733992102
H           66.44180986223222       43.14489598196067       53.50689404728256
H           66.91638023975355       44.78534965274956       53.91102362739620
H           65.26130981284521       44.25509838462930       54.20771675777149
H           64.24103518785071       44.22022413140733       50.60252879784376
H           63.60838750807336       44.19799124944510       52.24478438159009
H           64.65758463808011       42.01850815865136       52.65066537420487
H           62.36400486704197       42.23472421530496       51.72113025735522
H           63.01555120232684       42.10605320028678       50.08622423508601
H           63.13629945297366       40.74357217203188       51.19741885664044
H           66.58534269403907       42.39966835465454       50.98986717314526
H           65.43449256071709       42.04148907713124       49.70847076438821
H           65.06010320154068       39.78646679425426       50.76828053913559
H           66.56841908425606       40.08676151593596       48.85529513641163
H           67.90142114201950       40.49704822650570       49.93345130388696
H           67.22501244630807       38.86698490363190       49.94622533174353
H           66.56375505823132       40.95776298551004       52.91841147782895
H           67.55560022461694       39.67420424678276       52.25316467565127
H           64.65209227051531       39.26368533551229       53.04404557740330
H           66.93782591136612       37.29211781070864       52.60721512280074
H           65.27593397392704       36.88041342661082       53.03548691588094
H           65.62787196874035       37.59427047320978       51.46419449851100
H           67.19810085096790       39.20027510256980       54.65515071383888
H           65.95773805157707       38.01567158729537       55.02473504346774
H           65.14952016460005       40.91735317811061       54.84113430456022
H           63.44423054284974       40.19482623108806       56.43913443433777
H           63.44945716569570       39.09288973091217       55.06254644641501
H           64.19991075051071       38.60381651426109       56.58130596917954
H           66.65020549722432       39.58809393981467       57.11337422751619
H           65.54566967989952       40.92294918929341       57.39621894423674
H           67.32912098029180       41.56530043404128       55.18172994483406
H           65.97200000005789       43.18649557027991       56.45316388023183
H           66.91705847506825       42.85356326392810       57.90866354307983
H           67.67466392083011       43.61691072664672       56.51414273746848
H           68.80918451172198       39.98517755049237       56.66076435116263
H           68.80684461798329       41.32544119778019       57.80135442015554
H           69.55034959690347       42.77182653040449       55.75127668166994
H           71.39850103703857       40.70593094704673       57.01477981234657
H           71.94214248390836       42.15426607446281       56.16834582947420
H           71.01197379589838       42.30264199997665       57.65797415217602
H           69.04474114127777       40.69905000792393       54.20896233497037
H           70.60548546226146       40.11405897727654       54.76791683444686
H           71.55175323901402       42.38411959366650       53.94070520130591
H           71.96426852157805       40.24359888789440       52.80268502505000
H           70.39797086117791       40.33762110880620       51.99583376109545
H           71.66964303193667       41.48930686443646       51.59321050812254
H           69.18487855661678       43.37772020037686       53.72381046625392
H           68.98293005879422       42.34378953366480       52.32315196537598
H           71.43732534528320       43.67624111290418       51.85800884485618
H           69.73311286056993       43.07549921793570       50.16742139536275
H           68.67114232484120       44.34335021766635       50.78507269640927
H           70.20590210930003       44.76803893157181       50.02868893719985
H           69.34022998893396       45.60368451402838       52.90948261027696
H           70.74705194790056       46.08036099726754       51.96790342291188
H           70.97514017770548       44.63603273903807       54.63285918901207
H           72.96996645833573       44.47377991045614       53.15365525617970
H           72.99843593448642       46.23034516399340       53.00421601381516
H           73.29654386308677       45.46825722131594       54.56713056827815
H           70.97222299524576       47.59817379188249       53.96180774089156
H           71.71119357165477       46.96987341677479       55.42885726474648
H           68.78101088703191       46.50931596650012       54.76684127337391
H           68.62076716585074       45.97526203037901       57.16089569261098
H           69.84028833386083       44.93907491743921       56.42341437826411
H           70.33948230461951       46.32545946536744       57.38144140477221
H           70.17083936253924       48.69885433840000       56.34045136564654
H           68.48863183366544       48.27204363248502       56.62743855275190
H           69.42572084488613       49.08626724230844       53.86731101102169
H           67.18413157323654       47.93341292237418       54.25245156835744
H           66.69980519759673       49.32809849845528       55.20767469968045
H           67.07142423915847       49.51146402699294       53.48893401243786
H           70.08919439626625       50.83402797485880       55.47942325448626
H           68.47384228064330       50.81398120653148       56.18249034869564
H           67.57758088775441       51.62005887197535       53.95997194793186
H           67.91930650229271       53.11280328057663       55.89243723198982
H           69.59496834045481       53.37588270748697       55.41908039886094
H           68.28652863501857       53.95974113578999       54.39132785210640
H           69.78267293326631       50.87766522506973       52.75116932473713
H           70.46282263143354       52.36528540419227       53.39150728612756
H           68.57442359253098       53.60746600001192       52.19300743859214
H           70.50525810649498       51.98214616615896       50.48040811593913
H           69.78956238734462       53.53764934443802       50.05147483255089
H           70.93090788160166       53.43608633064702       51.38416364146810
H           67.02605048200290       51.73877231308469       51.91337659114659
H           68.23324009058922       50.82391564585947       51.01272346641728
H           68.08265675196574       52.39764809497721       49.14808216309535
H           66.62072946942605       50.38424612743952       49.34496311779029
H           65.36302016958255       51.38269923410533       50.07143461880488
H           65.85753916551776       51.65741258121285       48.40240954105215
H           67.52062028338588       54.45664053509180       50.34871352900218
H           65.99864945564990       53.76084816020500       50.90106535574539
H           65.12547027420429       53.76148700981985       48.61868901149726
H           66.31433161434589       56.44851323041824       49.43334177356872
H           64.88693001672648       56.21140332584476       48.42594656840713
H           64.85695151430141       55.72764517425360       50.11764497679574
H           67.32154741498300       53.44970619167487       47.44813175878303
H           67.75082469213083       55.10733016386730       47.85942295263429
H           65.88849149744745       55.93529965660645       46.44689134192275
H           66.90265750388534       55.30089474710343       44.28453487813622
H           68.15062264756628       55.59844651762969       45.49389367369604
H           67.72691903048811       53.94367828811556       45.05238409422432
H           60.71197296619936       42.10476094804370       53.67948792656175
H           59.06974748246173       41.95645988087186       54.30402927209552
C           64.06429832141775       40.78930851309585       60.45805555727907
C           63.90577326764680       39.31244902589611       60.80520273496725
C           65.26462272045211       38.62049743228703       60.69598455358441
C           62.89565093608858       38.60872379703017       59.88683874020814
C           61.42726787957421       38.96334390842983       60.15533761663988
C           60.91405157046715       38.25448037560570       61.40720336160539
C           60.49952265370413       38.73006092989332       58.94513047451096
C           60.10310982391386       37.28826761820193       58.59624742638205
C           61.24477579818470       36.51531756783091       57.93400019853893
C           58.90272074386181       37.26010323551195       57.63299733707031
C           57.58901072507184       37.87893261335032       58.12633390188306
C           57.17465776888378       37.32626672734728       59.49039946824407
C           56.45234916392908       37.61143732416516       57.12690989417795
C           56.66314616807514       38.11658589760189       55.69380805765814
C           57.05635312233587       39.59266391669686       55.67693245271823
C           55.38229092660304       37.93349570423003       54.86481088251575
C           54.98335577209205       36.48809411845382       54.54517765654280
C           55.94462160708751       35.87338203958031       53.52704614676792
C           53.55365372839491       36.43010935994635       53.98259742237688
C           52.43109113547089       36.66192967553710       55.00054391345858
C           52.37363886559052       35.52493423560247       56.02196852328095
C           51.06015243743974       36.76227680609075       54.31390913965768
C           50.87530529136588       37.88781353866020       53.28810983175217
C           51.32919292747196       39.24233914754715       53.83322704669151
C           49.40082714317247       38.00863239135278       52.87129506131835
C           48.72144215368516       36.74632357820388       52.32794393262670
C           49.45662326033767       36.19722666315889       51.10585749284722
C           47.26608347856084       37.05108926028601       51.93728204687661
C           46.28619300270444       37.26258940523042       53.10208792052422
C           45.96048252608617       35.93593077821258       53.78376611633553
C           45.01836623903265       37.93561134561954       52.55687243677610
C           43.92851355018603       38.32623944961175       53.57038234684912
C           42.70208688407363       38.77520411116951       52.77299039168319
C           44.42810107769738       39.42402356716894       54.52192949994431
C           43.79886910174437       39.51237493779515       55.92429570118767
C           43.94306615483075       38.19505250341621       56.68750250687852
C           42.33291198471525       39.96280970856567       55.97446242125495
C           42.04277500741313       41.34586018287552       55.37397684398481
C           42.64457194156751       42.44891064626516       56.24014579424977
C           40.52439731069477       41.51659747428464       55.21853927405520
C           40.04619725017193       42.88351568629124       54.70453679423814
C           38.51843172506225       42.89237255035493       54.65977375022521
C           40.64340623555386       43.19397528487737       53.32822196685203
C           40.33439352594862       44.58009974418788       52.74000278512967
C           41.01259517954910       44.67254326743738       51.37402435981102
C           40.81913840018336       45.68543076492203       53.68538752301161
C           40.76314307043102       47.12913222247435       53.16406364754202
C           41.28215410718169       48.04947489759570       54.26815601242735
C           39.34100739785077       47.51162011443051       52.73595758250073
C           39.11392145588653       48.98756926069996       52.36965166892110
C           37.64218678111308       49.17990505646878       52.00167759197068
C           40.03576435275512       49.42805254431903       51.22642868907210
C           39.91620307283738       50.89375370616448       50.77452719762520
C           40.86383273927238       51.10943150819610       49.59456595597317
C           40.23659073526974       51.84619358084717       51.93302730168030
C           40.17236478854554       53.35262743586488       51.63978666772352
C           40.72619850390374       54.10333693712819       52.85109688620666
C           38.74226981977193       53.81393815583022       51.33204411703456
C           38.65540334917357       55.21532551664994       50.70953409436132
C           37.24686963797820       55.78109127617619       50.88876392409995
C           39.03292775300021       55.18476798445850       49.22171493994907
C           39.59909003042576       56.50934744293419       48.68563850411944
C           39.50197022414859       56.53089731802282       47.16081009993077
C           41.05019805210795       56.67405808766119       49.15000523686057
C           41.77085394185480       57.97171288129025       48.75574519281351
C           43.20165577252498       57.89415629673704       49.28518078119358
C           41.03907979239061       59.20733788804328       49.29230839654641
C           41.75570568740959       60.55340250308537       49.10016595479707
C           40.92239194915398       61.65121356083473       49.76183309972620
C           41.98798661452498       60.84338583379259       47.61345936461084
C           42.70971474542986       62.15741709158018       47.28110748927046
C           42.81705615053403       62.29640342210574       45.76223834934040
C           44.07521475959785       62.31330207838380       47.97052729968556
C           45.14149215697611       61.24853116548378       47.64673255811628
C           45.87542293196974       60.84587864356038       48.92557998001105
C           46.14477948759635       61.76293750031341       46.60620269540699
C           47.02928997674143       60.66935342827057       45.99052139007295
C           48.23361198116088       61.32159814182486       45.31462144769502
C           46.25081677353180       59.79163260448595       44.99494991351060
C           46.43025732465007       58.28160231017185       45.19545193227129
C           47.88779521595069       57.85779411193252       45.01962738861427
C           45.56898640598333       57.49703343295405       44.19494159327179
C           44.05786592423966       57.52312479322096       44.45020096894236
C           43.69993155720584       56.61575099056900       45.62651484137115
C           43.27253722919156       57.05872386603370       43.21446682855817
C           43.39520206065928       57.92645567841108       41.95529190073376
C           43.05261405147638       59.38913961283374       42.23838662622006
C           42.46918726779555       57.40774900288631       40.84522983700623
C           42.75299399787278       55.98894855183382       40.34811364808809
C           44.14481253433254       55.82841797042519       39.74883623782269
H           64.77028532959849       41.26354890617036       61.13765299930603
H           64.44254731060533       40.89593099562985       59.44402655389674
H           63.11823667532579       41.31920352164423       60.53111509324506
H           44.91325717861172       55.94704329560531       40.50784088526365
H           44.25299108728613       54.83938206075747       39.30853790203972
H           44.30862677161333       56.57123044216844       38.97102032140151
H           41.43620070596398       57.45148827303844       41.20259630417038
H           42.54514573654171       58.08674744938284       39.99087278093995
H           43.60012293559505       56.04466523811209       42.97444335209845
H           42.21349337734942       57.00530540264109       43.48479459994934
H           43.74125075582868       58.53883206029722       44.70134756399015
H           44.21481832877762       56.93020179550778       46.53015999214653
H           42.62933566755833       56.63962656380689       45.82013295810867
H           43.98264814135085       55.58821828810460       45.40820069566992
H           45.78079294921388       57.89426108142168       43.20146270045678
H           45.89025192922438       56.45208253818122       44.20163935764762
H           45.18756601134037       60.02057853339559       45.07894063258500
H           46.55144614893362       60.04727757106274       43.97759504901457
H           44.42236414247323       57.88609497067586       41.58227307500858
H           42.07140733042901       59.47005539426761       42.70242128532701
H           43.78642371933048       59.84395088688062       42.89794610943810