3864
 energy: -5104.216919196239 gnorm: 0.000774698985 xtb: 6.6.1 (8d0f1dd)
C           59.98637775970057       61.62658680889097       43.03616754275510
C           59.18578044051588       62.58740071521062       42.43183381366600
C           59.21875675901977       62.69429476129989       41.04669404405376
C           60.02692638834063       61.86476966579868       40.29030718794302
C           60.82190730392298       60.91442650148528       40.90736589812366
C           60.79898926671873       60.79580565401774       42.28571931730772
C           58.31268022812352       63.48805551580866       43.27153676756636
C           58.71725158500659       64.95141476448929       43.07974385621311
C           56.83041894357321       63.24805078892678       42.94341179016889
C           55.86739904949553       63.81891526243901       43.99958875883029
C           54.47972408216646       63.88755823915555       43.41227980167152
C           53.77348748469691       62.72737055585761       43.11288204859361
C           52.51323385419289       62.79121465950296       42.54913902888420
C           51.93860056540711       64.01743908694735       42.26226067206775
C           52.63359585039052       65.17849165891855       42.54810179194915
C           53.89160822846775       65.11118722142983       43.12168654882348
C           55.88902387962735       62.99909471181797       45.30050353558286
C           55.79793756944324       63.88299312250795       46.54984997748886
C           57.03371492532359       64.73095024849279       46.71329830828529
C           56.95229013416926       66.11747591287960       46.72321133316932
C           58.08289666840938       66.89747314104727       46.90292558610447
C           59.31778477192250       66.29842698278563       47.08000883781960
C           59.41411192746850       64.91662917618054       47.07034348028474
C           58.28258504477166       64.14346009434557       46.88806603989426
C           55.58383500612300       63.01275355556942       47.80247024610987
C           54.09599415988920       62.79393480266219       48.12858504366645
C           53.95008744608868       61.56364718993048       48.98798032359320
C           53.22288956732231       60.46889736119083       48.54225254466588
C           53.14761364695414       59.30968000551017       49.29528628050656
C           53.79179310398619       59.23256266665058       50.51772484611681
C           54.50327846228365       60.32440357880829       50.98475543666424
C           54.58328397373524       61.47740995568610       50.22351394851262
C           53.52270730654604       64.03498461307278       48.82149560204171
C           51.98951663539397       64.07536569106027       48.86651697930470
C           51.37355534057583       64.24905742496071       47.50260626591806
C           51.63916061537245       65.37309856373271       46.72843501855810
C           50.99776278396717       65.57127981520897       45.51956609240679
C           50.07538328609141       64.64634897197485       45.06167245596195
C           49.81713614945733       63.51322203306515       45.81175988803339
C           50.46487908895295       63.31640416697857       47.01854575971605
C           51.57508335322037       65.22497287711484       49.79930023705082
C           50.08928560913765       65.60039141189171       49.77264409960434
C           49.16994641971550       64.42879211002852       49.99421124291688
C           49.28537507128258       63.60383487162181       51.10726654855124
C           48.37675124258282       62.58568701472390       51.33390707246570
C           47.33991529082433       62.36636338959688       50.44275069247696
C           47.23219198430521       63.16075365906133       49.31466181593905
C           48.13928228190807       64.18360147562292       49.09588904474035
C           49.86578549023650       66.70775669001463       50.81969915175252
C           48.38430811954689       67.09846356769705       51.00940395837939
C           48.25912503631824       68.60035075901892       51.03100664860862
C           48.69618057044450       69.35381238966075       52.11528807718274
C           48.60221941070337       70.73347097303798       52.10463890375155
C           48.07850740911315       71.39022688138512       51.00353694332158
C           47.66411614417418       70.65395102304625       49.90789578539989
C           47.75757900100481       69.27321866121704       49.92335938375664
C           47.83686557054197       66.44333984509599       52.28163015343153
C           46.32849270195948       66.61259064133354       52.52397227945771
C           46.06099784535076       66.09444358028136       53.91578136068590
C           45.86722507855778       66.97154149099492       54.97448128328065
C           45.69538066883131       66.49914138049967       56.26392656361016
C           45.71277800335575       65.13792387790291       56.51105949607509
C           45.89057402517529       64.25227308656999       55.46233030302768
C           46.06956561563309       64.72862040277627       54.17692980261296
C           45.47530908440716       65.87210355296051       51.47979345068998
C           44.91036040851240       66.79380358170337       50.39155588554562
C           43.96703940669193       67.82146946573580       50.96249146501727
C           44.19179983606627       69.17454485708500       50.74145906978310
C           43.31976450014376       70.13176243042783       51.22937720423997
C           42.20451504173075       69.74907538955976       51.95346318924142
C           41.97747393191259       68.40476965213612       52.19271204669636
C           42.84924495505649       67.45089307381197       51.70131641854227
C           44.20636597216141       65.95555703612071       49.31532275131799
C           43.80218244838701       66.78504313450360       48.09119658366568
C           45.00481836809600       67.42414672798776       47.44050426590955
C           46.08381601384043       66.65675975788622       47.01412280090527
C           47.17870328282414       67.24193758410384       46.40460107671967
C           47.20773639022268       68.61099006676577       46.19745032114982
C           46.13247486259454       69.38476153672690       46.60069638861114
C           45.04267797573934       68.79488335663324       47.21842082933765
C           43.08362767463903       65.93008705971957       47.03522377268566
C           41.71585618472346       65.38370528501673       47.47089497957622
C           40.76846855660105       66.52387753563312       47.74283051875027
C           40.45251955667599       66.86724834294574       49.05181435651187
C           39.65093786881322       67.95943879532523       49.33063247962181
C           39.13386283112960       68.71958148298947       48.29663886560562
C           39.41612887518340       68.37228883346442       46.98689236699880
C           40.23379339608540       67.29091178673895       46.71338593067092
C           41.19675238797635       64.41108579914015       46.40607433134655
C           39.87336311739727       63.75285921504951       46.81097698198656
C           40.01670488210082       62.98822883554578       48.10495874267583
C           40.92210848906180       61.93970730335694       48.22790731983228
C           41.02463695637223       61.22051936548960       49.40551110703820
C           40.22202850985133       61.54210664063918       50.48632707563041
C           39.32122022131298       62.58755018937094       50.38079025599958
C           39.22053980397594       63.30143432559387       49.19918839730236
C           39.37705750713774       62.79858414258117       45.71359494912673
C           38.76416020441303       63.50288964650657       44.49177663723238
C           38.87147902899341       62.62610094754271       43.27013711646516
C           38.40243578818472       61.31779032596505       43.28168679792422
C           38.47134167787181       60.53489307765261       42.14430155779394
C           38.99625770028349       61.04932327801324       40.97148035753726
C           39.48186653792839       62.34412796283774       40.95442115717413
C           39.43060284431331       63.12040494151955       42.09805101779072
C           37.29401408162667       63.86285102509256       44.76320154604804
C           36.55904238482506       64.37858526793404       43.51935246656088
C           37.27148718698245       65.53380349457737       42.85889494175247
C           37.74132797393312       66.61516230639523       43.59653507335116
C           38.35843764278083       67.68353574614959       42.97125405350615
C           38.51178675551250       67.69536284089472       41.59527483800078
C           38.04207466287261       66.62800553090032       40.84954471562534
C           37.42804779860907       65.55932772109028       41.47847922678169
C           35.11958018617870       64.84466634076165       43.82065975052566
C           34.29457243393723       63.92100611889315       44.72956506968099
C           33.01353680181549       64.62383358463327       45.11092142782139
C           32.83217285799883       65.08268229514522       46.41033752276154
C           31.67259055996584       65.73888572145492       46.78103594348678
C           30.66946816603918       65.95160888355927       45.85209830722301
C           30.84096983854158       65.50931169565730       44.55158719674288
C           32.00332071170131       64.85524397759110       44.18524351918337
C           34.02295763521889       62.54645911601164       44.10564187662111
C           33.43085121976159       61.58255525609181       45.14831634028791
C           34.45566887314276       61.35336488955307       46.22979167344251
C           35.61942931552142       60.63674593987660       45.97736639211345
C           36.60926945203559       60.53003747381718       46.93739535681068
C           36.46376125512269       61.15886843270863       48.16175862625575
C           35.29614104941006       61.84930164046143       48.43630327736623
C           34.29800933851675       61.93510124404727       47.48167660307454
C           32.96394912177485       60.27460866380046       44.50149721562930
C           32.25812728708414       59.36283704568868       45.51661032002064
C           31.03806745618872       60.06154384490233       46.06127086309854
C           29.94472922229050       60.32767814402300       45.24393594487749
C           28.84014407849158       60.99970426570972       45.73443172573629
C           28.80922625567553       61.42006580007170       47.05383625619520
C           29.88697539146919       61.15356608215754       47.88003480561417
C           30.98833245155837       60.47712566580307       47.38579343841830
C           31.89488414427366       57.99636249173357       44.89888411811143
C           32.86339792055446       56.89000253833294       45.33365390738017
C           34.27757913860761       57.14562558336281       44.87587875658611
C           34.60460539617751       57.23434143124820       43.52717437752684
C           35.92020386396628       57.40465340024042       43.13184636325145
C           36.93161048924916       57.48026697694912       44.07513539173001
C           36.61491374669809       57.40319740153122       45.41942426178594
C           35.29755864383862       57.24359528153246       45.81366627183984
C           32.43153548968746       55.50202213465273       44.82943125110374
C           31.16924566436556       54.91764748967618       45.48696722125143
H           58.48236300818352       63.23656753522209       44.32239441750450
H           56.60215372348924       63.70433307711838       41.97680991040126
H           56.65460668715951       62.17468843418421       42.85198804755473
H           56.18984635540969       64.84013638158000       44.22486357881650
H           55.05294669032273       62.29905093669744       45.31108637366499
H           56.79929491024719       62.40233870994813       45.34864721687717
H           54.93685192097220       64.54888747377879       46.42616030631869
H           56.06305557315843       62.04434896232064       47.64409320281384
H           56.06533627121970       63.48688840536244       48.66079397006865
H           53.55229069248792       62.63541847853800       47.19048405449874
H           53.88371689306543       64.92869175286498       48.30932536351356
H           51.62475822871293       63.13274800831410       49.28929879924626
H           51.85458792101580       64.95586545181636       50.81961846977325
H           52.14321699220498       66.12041881702110       49.53499641622690
H           49.85534424943774       66.02197333207759       48.78781135390998
H           50.28260367784845       66.39674363185239       51.78020477903782
H           50.43126242507600       67.58612590254553       50.49902325328893
H           47.82223426978751       66.72361435101251       50.14973331088380
H           48.05459653464465       65.37514867358129       52.23886989912855
H           48.36879066985010       66.85126292307402       53.14485661249864
H           46.08348334519962       67.68060670450022       52.49490056535644
H           45.73841348477409       67.32736209130871       49.91820629162170
H           44.87479097492803       65.15006730511313       49.00695200851917
H           43.31607221966028       65.50499547746928       49.75254028491776
H           43.12107840641190       67.57874270097955       48.41980877573022
H           42.94622271257669       66.53848554717253       46.13672281850081
H           43.72676192819895       65.08986924214764       46.76946647069061
H           41.84082138274221       64.81572210352141       48.39777925012275
H           41.06951879019054       64.93466914379397       45.45764893497609
H           41.95103976218424       63.63769831004169       46.24508734497494
H           39.12823028767217       64.54194615431983       46.95914997051533
H           40.21618588638582       62.18228854592267       45.38339555196568
H           38.62613595502634       62.13413624861346       46.14651607333056
H           39.31446453128759       64.42727920082325       44.28969677658807
H           36.78695790509927       62.96436863533580       45.11693392510801
H           37.25006263906830       64.60758608564115       45.55967252244356
H           36.51266471436899       63.55608961932508       42.79758090495479
H           35.16856480564650       65.82446687320434       44.30095356531564
H           34.59802337817288       64.98173558057478       42.86982874289075
H           34.86070940423075       63.76516281191482       45.65177014676957
H           33.33081402700262       62.64576622044193       43.26807465401479
H           34.95372578463777       62.12839897153742       43.71971254305774
H           32.55542399348180       62.07135801266237       45.59338879330922
H           32.27427680983599       60.51071464639129       43.68760924232775
H           33.81403322672391       59.74067479293485       44.07587674214182
H           32.95133669693699       59.19480502482506       46.34813375064768
H           30.88973704644094       57.72081120755416       45.22450335329820
H           31.87557895614234       58.06958301828966       43.80976838110180
H           59.97913840686999       61.53357394763984       44.11200942410966
H           61.42077083665772       60.06236461589019       42.77956987912668
H           61.45880806640056       60.27392445043050       40.31448942038968
H           60.03608876163715       61.95994011951676       39.21359275447764
H           58.61120642405045       63.43536836915583       40.54849895141954
H           54.21849462464792       61.76478002365077       43.32007647832931
H           51.97510224181789       61.88119301627449       42.32535946073362
H           50.95646198245610       64.06814810276431       41.81454955326533
H           52.19586736670249       66.14072167313383       42.32069252240662
H           54.42711774512902       66.02537466636423       43.34116230307343
H           55.99126328171442       66.59667877198977       46.58890255886031
H           58.00049020538207       67.97562490266843       46.90639280070120
H           60.20140827131593       66.90384270412024       47.22479752969683
H           60.37788627025706       64.44904559144109       47.21125685902527
H           58.36537264180338       63.06673167179957       46.88634282335705
H           52.71456853501363       60.52731408944944       47.58958001882731
H           52.58505939646948       58.46400219706337       48.92634284699098
H           53.73765385459958       58.32675513452196       51.10314047612098
H           55.00686077969870       60.27141787283706       51.94040299901069
H           55.15232311084159       62.31881553242058       50.59301748460858
H           53.89701752725663       64.07256438212633       49.84687932859050
H           52.33886395548604       66.11848387367787       47.07928481578683
H           51.20814721512053       66.45848258065895       44.93857296481347
H           49.55289225301732       64.80875711311694       44.12975890872384
H           49.09135601377519       62.79625808633330       45.45744154456652
H           50.24661396353616       62.43539015449765       47.60664679994282
H           50.08895098988159       63.76512510233756       51.80856715286318
H           48.47133605657950       61.95857200295123       52.20794278985606
H           46.63315822829458       61.57003784934695       50.62203280840237
H           46.44075458995681       62.98457430601528       48.59920675862347
H           48.04977992097960       64.80208716923930       48.21347122622071
H           49.12456425505821       68.86205374956211       52.97639526163183
H           48.94198437735342       71.30261259337833       52.95891565445782
H           48.00258085057622       72.46821179926484       50.99736877888026
H           47.26505925818820       71.15422689718227       49.03649797552539
H           47.44244432387040       68.71338218096867       49.05322987974490
H           45.85333596264612       68.03731790709941       54.78500188391308
H           45.54978339958200       67.19541132216565       57.07839656724196
H           45.59142732167235       64.77679740944899       57.52141160992471
H           45.89626562940488       63.18696648244956       55.64128620806971
H           46.21991866475408       64.02968984145433       53.36772243494386
H           46.07733648681764       65.09595000468637       51.00304913720228
H           44.64435834977697       65.37705666336099       51.98597216341530
H           45.06464568993714       69.48431587848049       50.18344504172007
H           43.51316406382900       71.17956903641199       51.04452429743587
H           41.51964316570947       70.49422236806235       52.33309838311256
H           41.11473095983253       68.10248164670791       52.76854605237573
H           42.66012093415247       66.40761974703429       51.90823975007340
H           46.07298113200756       65.58664624768615       47.15250858434574
H           48.01032814391694       66.62761702935309       46.08650960774195
H           48.06204123500860       69.07286062365131       45.72379030480607
H           46.14337264196318       70.45324139327438       46.43486089425929
H           44.20842754134629       69.40661646592534       47.53496666524506
H           40.85079556257002       66.27957178936097       49.86623662665822
H           39.43444464011484       68.22230267394326       50.35641579533828
H           38.51154617680207       69.57731455507107       48.50419160220078
H           38.99818410654444       68.95539960010626       46.17792082724193
H           40.45735482345009       67.05043335561489       45.68383434630375
H           41.55987119156697       61.67847645652084       47.39607520669560
H           41.73671926928317       60.41023214495232       49.47786090716492
H           40.30333560224259       60.98823455509022       51.41048064913189
H           38.69706642873913       62.84698594090068       51.22326891523360
H           38.51568512274785       64.11852971478039       49.11974328750990
H           37.97784263643357       60.90659601116884       44.18473835484669
H           38.10397737782873       59.51961657352017       42.17798933637115
H           39.02599127536951       60.45542074421646       40.07092785803350
H           39.89436389546341       62.75154641531684       40.04216641042114
H           39.81673138499448       64.13099708566430       42.07637056577617
H           37.62842277125289       66.63444015347021       44.67046636638867
H           38.71960191916100       68.51431063958961       43.56114937638880
H           38.99289726379747       68.53120308119559       41.10764355602416
H           38.15634072997049       66.62728838521967       39.77458967283470
H           37.07360206423852       64.72708153327841       40.88659321899649
H           33.60858759102145       64.92118177560681       47.14498771448667
H           31.54861007373782       66.08499880594483       47.79756040821262
H           29.76069545060068       66.46120571644349       46.13801875663544
H           30.06438899767370       65.67671556604081       43.81864757794698
H           32.12008710215830       64.52368055246225       43.16372920746099
H           35.75941978008441       60.15800373344884       45.01954309129108
H           37.49935973504069       59.95714682245091       46.72510518768472
H           37.26013008359189       61.11717371318608       48.89143500451477
H           35.15342148068650       62.32784544464526       49.39266402567107
H           33.38587722534721       62.47269143549306       47.70525256453029
H           29.95688184809534       60.00645358334570       44.21219871718658
H           27.99979550414335       61.20140353986815       45.08495848954423
H           27.94862952664814       61.95134632445482       47.43454742954153
H           29.87478226952535       61.47737306734486       48.91142115035773
H           31.82528722964095       60.27637377947701       48.03946981328318
H           35.05983011251883       57.18302494207133       46.86698187394574
H           37.39758698876962       57.45704318663142       46.16093192613556
H           37.96299425534850       57.59147830972661       43.77426143135207
H           36.15572778876263       57.47269659865483       42.07932679446024
H           33.82764799815863       57.16951868744498       42.77769997714174
H           59.78792576804021       65.06559006356635       43.23823108154020
H           58.48180096208378       65.29572855613878       42.07536166790342
H           58.20434952295598       65.59037430448895       43.79456913964782
H           32.88189837972720       56.87150583200761       46.42675451994190
H           32.26168841558771       55.55933824770497       43.75130388574097
H           33.26077451374237       54.81253014885024       45.00765154298180
C           31.35853176659583       54.73358028124623       46.99609952682088
C           30.81556234322343       53.60823030358171       44.82359680047429
C           31.65074334530815       52.50109362051666       44.92482781614930
C           31.31698302379998       51.30475242259836       44.31539582560709
C           30.14029477010691       51.18886162973299       43.59463277815174
C           29.29925277356937       52.28271488586923       43.49153165115751
C           29.63801458933384       53.48036478925122       44.09714654244573
H           32.57092772460765       52.56852554978156       45.48654584818220
H           31.98309012423914       50.45740935410711       44.40695692596325
H           29.87313374363001       50.25770858660508       43.11516965963435
H           28.37491575591909       52.19756627557310       42.93853446663149
H           28.97191974219287       54.32856154577026       44.00873117883309
C           30.13175733283938       54.12748670830561       47.68736837635803
H           32.22910215397132       54.10298151505574       47.18763183071567
H           31.54702777172553       55.70674787182588       47.44888405142603
C           30.32631067678826       54.18181105801524       49.17539216411989
C           30.08372257723521       55.36436697331919       49.86603329071512
C           30.32232660700720       55.45339484367570       51.22509631973828
C           30.80176075108720       54.35385390275726       51.91707291758802
C           31.03890881719821       53.16919322145247       51.24222266112796
C           30.81007268052097       53.08732008779400       49.87949681618441
H           29.70191338358877       56.22364567166538       49.33116110228758
H           30.13208277325967       56.38133403678552       51.74590069223093
H           30.98548372296757       54.41907416350035       52.97988203892569
H           31.40158660207015       52.30267541823008       51.77488235211959
H           31.00693767066925       52.15892898129010       49.36127895423054
H           30.33449851988506       55.60997476515246       45.32975324172605
H           29.24381080343630       54.70097253504399       47.40886328494885
H           29.98924921888203       53.09664027988237       47.35778341857488
C           48.09675129672448       35.74192124212323       60.54130749769644
C           46.73815977174065       35.53933011711243       60.75903699368423
C           45.92951149288209       35.25485074135116       59.66499393141100
C           46.46134578982058       35.16082939866764       58.38998885542726
C           47.81761943620351       35.34908681362268       58.18993489907832
C           48.63259457839209       35.64463327285326       59.26963818842658
C           46.15718757355296       35.56888403089528       62.15157544353127
C           46.79979668948118       34.46969173995016       63.00408585849132
C           46.32963027052165       36.93531058427022       62.83002729814816
C           45.48482156364933       38.03425283442964       62.17271108626521
C           44.02029498912577       37.66525257996841       62.15794519470253
C           43.32700366507238       37.57816633670451       60.95850865066786
C           41.97914687376878       37.26753978810262       60.93179243941474
C           41.30143841497209       37.02927942560532       62.11344057652407
C           41.98016658490817       37.10799371438885       63.31736805733804
C           43.32528757030280       37.42656078192626       63.33825054119291
C           45.62587353200937       39.38536689206614       62.89477322393052
C           47.02476730569061       40.02053123734756       62.85489559834364
C           47.07181059136408       41.16111854999436       63.84295973410154
C           47.89386615631602       41.09516324674797       64.96041576374222
C           47.95008606020919       42.14312653703860       65.86303401004804
C           47.17582400125511       43.27300318009077       65.66556272890124
C           46.33979791229854       43.34395999506960       64.56418449678567
C           46.29162234407492       42.29676372088918       63.66309180867780
C           47.40866515637483       40.50004643402455       61.44988577289705
C           48.79913617385610       41.14911644053117       61.44105329843062
C           49.85644131656365       40.16966573552349       61.88289502444898
C           50.06686522525764       38.97748769122472       61.19959743621072
C           51.06464122142353       38.10166122535318       61.58805461432019
C           51.86582576280743       38.39718701736658       62.67816940124480
C           51.65068617013864       39.56989106656445       63.38193902705694
C           50.65429078963341       40.44557691434772       62.98674414954247
C           49.12549631803940       41.72271174771937       60.05256141547780
C           50.50110205983192       42.40304988326630       60.02382707564654
C           50.61470198934018       43.43959580701441       61.11746592902661
C           49.69604764090201       44.47924200348547       61.20832256457922
C           49.79433308909330       45.43273726521981       62.20307488792003
C           50.81629856967611       45.36609087410130       63.13441309225728
C           51.73590095118921       44.33521386167969       63.05939793016862
C           51.63781099766819       43.38676541285587       62.05453887880529
C           50.81129252336089       43.09583553840757       58.68452961608967
C           50.62806209602408       42.26548668924205       57.40352845879828
C           50.98316725631019       43.13679585838888       56.22134243097614
C           52.27515505183630       43.62346040711756       56.05258841879953
C           52.58381424419128       44.46120540245425       54.99650850024975
C           51.60876875717173       44.81796050294852       54.08153755256757
C           50.32515925541236       44.32197504866736       54.22303829642787
C           50.01693304946197       43.49442308104415       55.28958932568166
C           51.45742387036111       40.97773429262933       57.40443716987875
C           51.05796774569881       40.01656654333679       56.27311190471256
C           49.60499156831136       39.64494781109455       56.41035906199210
C           48.67316882908204       40.04922398882174       55.46143579937550
C           47.33277965654603       39.73276629912716       55.59793850151053
C           46.90468137629087       39.01287434664849       56.69929922643932
C           47.81784608027623       38.61064403273326       57.65754397860591
C           49.15804611825957       38.91512451254170       57.50513104877309
C           51.99599966789227       38.79595786480666       56.30844090335545
C           51.46148836548432       37.54835191394546       55.58945859354774
C           52.46494980296723       36.42731829351273       55.69358715285165
C           53.69581991427739       36.49900801885062       55.04937306583429
C           54.60058036560289       35.45699117786419       55.13572123265024