      -----------------------------------------------------------      
     |                   =====================                   |     
     |                           x T B                           |     
     |                   =====================                   |     
     |                         S. Grimme                         |     
     |          Mulliken Center for Theoretical Chemistry        |     
     |                    University of Bonn                     |     
      -----------------------------------------------------------      

   * xtb version 6.6.1 (8d0f1dd) compiled by 'stahn@M-Bot' on 2023-08-01

   xtb is free software: you can redistribute it and/or modify it under
   the terms of the GNU Lesser General Public License as published by
   the Free Software Foundation, either version 3 of the License, or
   (at your option) any later version.
   
   xtb is distributed in the hope that it will be useful,
   but WITHOUT ANY WARRANTY; without even the implied warranty of
   MERCHANTABILITY or FITNESS FOR A PARTICULAR PURPOSE.  See the
   GNU Lesser General Public License for more details.
   
   Cite this work as:
   * C. Bannwarth, E. Caldeweyher, S. Ehlert, A. Hansen, P. Pracht,
     J. Seibert, S. Spicher, S. Grimme, WIREs Comput. Mol. Sci., 2020, 11,
     e01493. DOI: 10.1002/wcms.1493
   
   for GFN2-xTB:
   * C. Bannwarth, S. Ehlert and S. Grimme., J. Chem. Theory Comput., 2019,
     15, 1652-1671. DOI: 10.1021/acs.jctc.8b01176
   for GFN1-xTB:
   * S. Grimme, C. Bannwarth, P. Shushkov, J. Chem. Theory Comput., 2017,
     13, 1989-2009. DOI: 10.1021/acs.jctc.7b00118
   for GFN0-xTB:
   * P. Pracht, E. Caldeweyher, S. Ehlert, S. Grimme, ChemRxiv, 2019, preprint.
     DOI: 10.26434/chemrxiv.8326202.v1
   for GFN-FF:
   * S. Spicher and S. Grimme, Angew. Chem. Int. Ed., 2020, 59, 15665-15673.
     DOI: 10.1002/anie.202004239
   
   for ALPB and GBSA implicit solvation:
   * S. Ehlert, M. Stahn, S. Spicher, S. Grimme, J. Chem. Theory Comput.,
     2021, 17, 4250-4261. DOI: 10.1021/acs.jctc.1c00471
   
   for DFT-D4:
   * E. Caldeweyher, C. Bannwarth and S. Grimme, J. Chem. Phys., 2017,
     147, 034112. DOI: 10.1063/1.4993215
   * E. Caldeweyher, S. Ehlert, A. Hansen, H. Neugebauer, S. Spicher,
     C. Bannwarth and S. Grimme, J. Chem. Phys., 2019, 150, 154122.
     DOI: 10.1063/1.5090222
   * E. Caldeweyher, J.-M. Mewes, S. Ehlert and S. Grimme, Phys. Chem. Chem. Phys.
     2020, 22, 8499-8512. DOI: 10.1039/D0CP00502A
   
   for sTDA-xTB:
   * S. Grimme and C. Bannwarth, J. Chem. Phys., 2016, 145, 054103.
     DOI: 10.1063/1.4959605
   
   in the mass-spec context:
   * V. Asgeirsson, C. Bauer and S. Grimme, Chem. Sci., 2017, 8, 4879.
     DOI: 10.1039/c7sc00601b
   * J. Koopman and S. Grimme, ACS Omega 2019, 4, 12, 15120-15133.
     DOI: 10.1021/acsomega.9b02011
   
   for metadynamics refer to:
   * S. Grimme, J. Chem. Theory Comput., 2019, 155, 2847-2862
     DOI: 10.1021/acs.jctc.9b00143
   
   for SPH calculations refer to:
   * S. Spicher and S. Grimme, J. Chem. Theory Comput., 2021, 17, 1701-1714
     DOI: 10.1021/acs.jctc.0c01306
   
   with help from (in alphabetical order)
   P. Atkinson, C. Bannwarth, F. Bohle, G. Brandenburg, E. Caldeweyher
   M. Checinski, S. Dohm, S. Ehlert, S. Ehrlich, I. Gerasimov, C. Hölzer
   A. Katbashev, J. Koopman, C. Lavigne, S. Lehtola, F. März, M. Müller,
   F. Musil, H. Neugebauer, J. Pisarek, C. Plett, P. Pracht, F. Pultar,
   J. Seibert, P. Shushkov, S. Spicher, M. Stahn, M. Steiner, T. Strunk,
   J. Stückrath, T. Rose, and J. Unsleber
   
 * started run on 2024/10/04 at 19:30:17.319     

           -------------------------------------------------
          |                Calculation Setup                |
           -------------------------------------------------

          program call               : /home/abt-grimme/AK-bin/xtb input.xyz --input input.inp --opt
          hostname                   : boar103.thch.uni-bonn.de
          coordinate file            : input.xyz
          omp threads                :                     8

   ID    Z sym.   atoms
    1    6 C      1-146, 294-300, 306, 309-314, 323-468, 616-622, 628,
                  631-636, 645-790, 938-944, 950, 953-958, 967-1112,
                  1260-1266, 1272, 1275-1280, 1289-1434, 1582-1588, 1594,
                  1597-1602, 1611-1756, 1904-1910, 1916, 1919-1924,
                  1933-2078, 2226-2232, 2238, 2241-2246, 2255-2400,
                  2548-2554, 2560, 2563-2568, 2577-2722, 2870-2876, 2882,
                  2885-2890, 2899-3044, 3192-3198, 3204, 3207-3212,
                  3221-3366, 3514-3520, 3526, 3529-3534, 3543-3688,
                  3836-3842, 3848, 3851-3856
    2    1 H      147-293, 301-305, 307, 308, 315-322, 469-615, 623-627, 629,
                  630, 637-644, 791-937, 945-949, 951, 952, 959-966,
                  1113-1259, 1267-1271, 1273, 1274, 1281-1288, 1435-1581,
                  1589-1593, 1595, 1596, 1603-1610, 1757-1903, 1911-1915,
                  1917, 1918, 1925-1932, 2079-2225, 2233-2237, 2239, 2240,
                  2247-2254, 2401-2547, 2555-2559, 2561, 2562, 2569-2576,
                  2723-2869, 2877-2881, 2883, 2884, 2891-2898, 3045-3191,
                  3199-3203, 3205, 3206, 3213-3220, 3367-3513, 3521-3525,
                  3527, 3528, 3535-3542, 3689-3835, 3843-3847, 3849, 3850,
                  3857-3864

molecular fragmentation (1/2 indicates fragments):
111111111111111111111111111111111111111111111111111111111111111111111111
111111111111111111111111111111111111111111111111111111111111111111111111
111111111111111111111111111111111111111111111111111111111111111111111111
111111111111111111111111111111111111111111111111111111111111111111111111
111111111111111111111111111111111122222222222222222222222222222222222222
222222222222222222222222222222222222222222222222222222222222222222222222
222222222222222222222222222222222222222222222222222222222222222222222222
222222222222222222222222222222222222222222222222222222222222222222222222
222222222222222222222222222222222222222222222222222222222222222222222222
222222222222222222222222222222222222222222222222222222222222222222222222
222222222222222222222222222222222222222222222222222222222222222222222222
222222222222222222222222222222222222222222222222222222222222222222222222
222222222222222222222222222222222222222222222222222222222222222222222222
222222222222222222222222222222222222222222222222222222222222222222222222
222222222222222222222222222222222222222222222222222222222222222222222222
222222222222222222222222222222222222222222222222222222222222222222222222
222222222222222222222222222222222222222222222222222222222222222222222222
222222222222222222222222222222222222222222222222222222222222222222222222
222222222222222222222222222222222222222222222222222222222222222222222222
222222222222222222222222222222222222222222222222222222222222222222222222
222222222222222222222222222222222222222222222222222222222222222222222222
222222222222222222222222222222222222222222222222222222222222222222222222
222222222222222222222222222222222222222222222222222222222222222222222222
222222222222222222222222222222222222222222222222222222222222222222222222
222222222222222222222222222222222222222222222222222222222222222222222222
222222222222222222222222222222222222222222222222222222222222222222222222
222222222222222222222222222222222222222222222222222222222222222222222222
222222222222222222222222222222222222222222222222222222222222222222222222
222222222222222222222222222222222222222222222222222222222222222222222222
222222222222222222222222222222222222222222222222222222222222222222222222
222222222222222222222222222222222222222222222222222222222222222222222222
222222222222222222222222222222222222222222222222222222222222222222222222
222222222222222222222222222222222222222222222222222222222222222222222222
222222222222222222222222222222222222222222222222222222222222222222222222
222222222222222222222222222222222222222222222222222222222222222222222222
222222222222222222222222222222222222222222222222222222222222222222222222
222222222222222222222222222222222222222222222222222222222222222222222222
222222222222222222222222222222222222222222222222222222222222222222222222
222222222222222222222222222222222222222222222222222222222222222222222222
222222222222222222222222222222222222222222222222222222222222222222222222
222222222222222222222222222222222222222222222222222222222222222222222222
222222222222222222222222222222222222222222222222222222222222222222222222
222222222222222222222222222222222222222222222222222222222222222222222222
222222222222222222222222222222222222222222222222222222222222222222222222
222222222222222222222222222222222222222222222222222222222222222222222222
222222222222222222222222222222222222222222222222222222222222222222222222
222222222222222222222222222222222222222222222222222222222222222222222222
222222222222222222222222222222222222222222222222222222222222222222222222
222222222222222222222222222222222222222222222222222222222222222222222222
222222222222222222222222222222222222222222222222222222222222222222222222
222222222222222222222222222222222222222222222222222222222222222222222222
222222222222222222222222222222222222222222222222222222222222222222222222
222222222222222222222222222222222222222222222222222222222222222222222222
222222222222222222222222222222222222222222222222
# atoms in fragment 1/2:   322  3542
 fragment masses (1/2) :     2085.00    22935.05
CMA distance (Bohr)    :  29.239
constraining FC (au)   :  0.0500

           -------------------------------------------------
          |                 G F N 2 - x T B                 |
           -------------------------------------------------

        Reference                      10.1021/acs.jctc.8b01176
      * Hamiltonian:
        H0-scaling (s, p, d)           1.850000    2.230000    2.230000
        zeta-weighting                 0.500000
      * Dispersion:
        s8                             2.700000
        a1                             0.520000
        a2                             5.000000
        s9                             5.000000
      * Repulsion:
        kExp                           1.500000    1.000000
        rExp                           1.000000
      * Coulomb:
        alpha                          2.000000
        third order                    shell-resolved
        anisotropic                    true
        a3                             3.000000
        a5                             4.000000
        cn-shift                       1.200000
        cn-exp                         4.000000
        max-rad                        5.000000


          ...................................................
          :                      SETUP                      :
          :.................................................:
          :  # basis functions                9624          :
          :  # atomic orbitals                9624          :
          :  # shells                         5784          :
          :  # electrons                      9624          :
          :  max. iterations                   250          :
          :  Hamiltonian                  GFN2-xTB          :
          :  restarted?                      false          :
          :  GBSA solvation                  false          :
          :  PC potential                    false          :
          :  electronic temp.          300.0000000     K    :
          :  accuracy                    1.0000000          :
          :  -> integral cutoff          0.2500000E+02      :
          :  -> integral neglect         0.1000000E-07      :
          :  -> SCF convergence          0.1000000E-05 Eh   :
          :  -> wf. convergence          0.1000000E-03 e    :
          :  Broyden damping             0.4000000          :
          ...................................................

 iter      E             dE          RMSdq      gap      omega  full diag
   1  -5195.7248688 -0.519572E+04  0.368E+00    4.33       0.0  T
   2  -5198.2937977 -0.256893E+01  0.217E+00    4.31       1.0  T
   3  -5198.2303364  0.634613E-01  0.492E-01    4.07       1.0  T
   4  -5198.4288014 -0.198465E+00  0.240E-01    4.06       1.0  T
   5  -5198.5783577 -0.149556E+00  0.458E-02    4.08       1.0  T
   6  -5198.5802162 -0.185853E-02  0.283E-02    4.08       1.0  T
   7  -5198.5813797 -0.116354E-02  0.111E-02    4.09       1.0  T
   8  -5198.5816964 -0.316644E-03  0.289E-03    4.09       1.0  T
   9  -5198.5817141 -0.176952E-04  0.124E-03    4.09       1.3  T
  10  -5198.5817157 -0.166418E-05  0.535E-04    4.09       3.0  T
  11  -5198.5817160 -0.272705E-06  0.287E-04    4.09       5.6  T
  12  -5198.5817162 -0.183697E-06  0.993E-05    4.09      16.2  T

   *** convergence criteria satisfied after 12 iterations ***

         #    Occupation            Energy/Eh            Energy/eV
      -------------------------------------------------------------
         1        2.0000           -0.6513673             -17.7246
       ...           ...                  ...                  ...
      4806        2.0000           -0.3818759             -10.3914
      4807        2.0000           -0.3814753             -10.3805
      4808        2.0000           -0.3809582             -10.3664
      4809        2.0000           -0.3806925             -10.3592
      4810        2.0000           -0.3805622             -10.3556
      4811        2.0000           -0.3802807             -10.3480
      4812        2.0000           -0.3797358             -10.3331 (HOMO)
      4813                         -0.2295278              -6.2458 (LUMO)
      4814                         -0.2281749              -6.2090
      4815                         -0.2279187              -6.2020
      4816                         -0.2274115              -6.1882
      4817                         -0.2269266              -6.1750
       ...                                ...                  ...
      9624                          0.6810840              18.5332
      -------------------------------------------------------------
                  HL-Gap            0.1502080 Eh            4.0874 eV
             Fermi-level           -0.3046318 Eh           -8.2895 eV

 SCC (total)                   0 d,  0 h, 48 min, 35.157 sec
 SCC setup                      ...        0 min,  0.710 sec (  0.024%)
 Dispersion                     ...        0 min,  6.920 sec (  0.237%)
 classical contributions        ...        0 min,  0.198 sec (  0.007%)
 integral evaluation            ...        0 min, 11.634 sec (  0.399%)
 iterations                     ...       42 min, 11.456 sec ( 86.838%)
 molecular gradient             ...        5 min, 37.438 sec ( 11.575%)
 printout                       ...        0 min, 26.802 sec (  0.919%)

         :::::::::::::::::::::::::::::::::::::::::::::::::::::
         ::                     SUMMARY                     ::
         :::::::::::::::::::::::::::::::::::::::::::::::::::::
         :: total energy           -5104.062648862252 Eh    ::
         :: gradient norm              0.022006595131 Eh/a0 ::
         :: HOMO-LUMO gap              4.087366650464 eV    ::
         ::.................................................::
         :: SCC energy             -5198.581716185719 Eh    ::
         :: -> isotropic ES            0.265110420867 Eh    ::
         :: -> anisotropic ES          0.788402727037 Eh    ::
         :: -> anisotropic XC          3.252024455335 Eh    ::
         :: -> dispersion             -7.010788950353 Eh    ::
         :: repulsion energy          93.372852987294 Eh    ::
         :: add. restraining           0.000000000000 Eh    ::
         :: total charge              -0.000000000030 e     ::
         :::::::::::::::::::::::::::::::::::::::::::::::::::::

      ----------------------------------------------------------- 
     |              Fast Inertial Relaxation Engine              |
      ----------------------------------------------------------- 

          ...................................................
          :                      SETUP                      :
          :.................................................:
          :   energy convergence        0.5000000E-05 Eh    :
          :   grad. convergence         0.1000000E-02 Eh/a0 :
          :   optimization log               true           :
          :   writing optlog all                1     steps :
          :   Hessian reset                    20     steps :
          :   time step scaling                 5     steps :
          :   maximium step len.        1.0000000     a0    :
          :   initial time step         0.2500000     fs    :
          :   maximum time step         1.2500000     fs    :
          :   power reset thr           0.0000000     au    :
          :   alpha parameter           0.1000000           :
          :   BFGS update                   false           :
          :   preconditioning               false           :
          ...................................................

........................................................................
.............................. CYCLE    1 ..............................
........................................................................

 iter      E             dE          RMSdq      gap      omega  full diag
   1  -5198.5829224 -0.519858E+04  0.306E-04    4.09       0.0  T
   2  -5198.5829224 -0.147384E-07  0.189E-04    4.09       8.5  T
   3  -5198.5829224  0.288737E-07  0.828E-05    4.09      19.4  T
     SCC iter.                  ...       10 min, 36.615 sec
     gradient                   ...        5 min, 37.417 sec
 * total energy  : -5104.0627038 Eh     change    :  -0.5489721E-04 Eh
   gradient norm :     0.0206242 Eh/a0  converged?    E=F G=F D=F
   time step     :     0.2500000 fs     power     :   0.2820941E-08
   step length   :     0.0025791 a0     speed     :   0.2495443E-03

........................................................................
.............................. CYCLE    2 ..............................
........................................................................

 iter      E             dE          RMSdq      gap      omega  full diag
   1  -5198.5847089 -0.519858E+04  0.449E-04    4.09       0.0  T
   2  -5198.5847089 -0.283981E-07  0.275E-04    4.09       5.9  T
   3  -5198.5847089  0.405425E-07  0.100E-04    4.09      16.0  T
     SCC iter.                  ...       10 min, 37.316 sec
     gradient                   ...        5 min, 37.760 sec
 * total energy  : -5104.0627780 Eh     change    :  -0.7419123E-04 Eh
   gradient norm :     0.0186735 Eh/a0  converged?    E=F G=F D=F
   time step     :     0.2500000 fs     power     :   0.3736871E-08
   step length   :     0.0037869 a0     speed     :   0.3664044E-03

........................................................................
.............................. CYCLE    3 ..............................
........................................................................

 iter      E             dE          RMSdq      gap      omega  full diag
   1  -5198.5870585 -0.519859E+04  0.578E-04    4.09       0.0  T
   2  -5198.5870585 -0.438167E-07  0.354E-04    4.09       4.6  T
   3  -5198.5870585  0.611544E-07  0.121E-04    4.09      13.3  T
     SCC iter.                  ...       10 min, 34.459 sec
     gradient                   ...        5 min, 37.098 sec
 * total energy  : -5104.0628627 Eh     change    :  -0.8472638E-04 Eh
   gradient norm :     0.0163503 Eh/a0  converged?    E=F G=F D=F
   time step     :     0.2500000 fs     power     :   0.4170502E-08
   step length   :     0.0048766 a0     speed     :   0.4718400E-03

........................................................................
.............................. CYCLE    4 ..............................
........................................................................

 iter      E             dE          RMSdq      gap      omega  full diag
   1  -5198.5899530 -0.519859E+04  0.688E-04    4.09       0.0  T
   2  -5198.5899531 -0.579575E-07  0.422E-04    4.09       3.8  T
   3  -5198.5899530  0.928976E-07  0.144E-04    4.09      11.2  T
     SCC iter.                  ...       10 min, 36.384 sec
     gradient                   ...        5 min, 44.446 sec
 * total energy  : -5104.0629487 Eh     change    :  -0.8599558E-04 Eh
   gradient norm :     0.0139175 Eh/a0  converged?    E=F G=F D=F
   time step     :     0.2500000 fs     power     :   0.4126630E-08
   step length   :     0.0058189 a0     speed     :   0.5630076E-03

........................................................................
.............................. CYCLE    5 ..............................
........................................................................

 iter      E             dE          RMSdq      gap      omega  full diag
   1  -5198.5933710 -0.519859E+04  0.778E-04    4.09       0.0  T
   2  -5198.5933711 -0.682794E-07  0.479E-04    4.09       3.4  T
   3  -5198.5933710  0.136653E-06  0.167E-04    4.09       9.6  T
     SCC iter.                  ...       10 min, 37.615 sec
     gradient                   ...        5 min, 40.094 sec
 * total energy  : -5104.0630280 Eh     change    :  -0.7933018E-04 Eh
   gradient norm :     0.0117043 Eh/a0  converged?    E=F G=F D=F
   time step     :     0.2500000 fs     power     :   0.3697791E-08
   step length   :     0.0065902 a0     speed     :   0.6376350E-03

........................................................................
.............................. CYCLE    6 ..............................
........................................................................

 iter      E             dE          RMSdq      gap      omega  full diag
   1  -5198.5977145 -0.519860E+04  0.934E-04    4.09       0.0  T
   2  -5198.5977146 -0.908221E-07  0.580E-04    4.09       2.8  T
   3  -5198.5977143  0.261347E-06  0.221E-04    4.09       7.3  T
     SCC iter.                  ...       10 min, 33.529 sec
     gradient                   ...        5 min, 44.536 sec
 * total energy  : -5104.0631020 Eh     change    :  -0.7400994E-04 Eh
   gradient norm :     0.0099080 Eh/a0  converged?    E=F G=F D=F
   time step     :     0.2750000 fs     power     :   0.2959862E-08
   step length   :     0.0079566 a0     speed     :   0.6998596E-03

........................................................................
.............................. CYCLE    7 ..............................
........................................................................

 iter      E             dE          RMSdq      gap      omega  full diag
   1  -5198.6030741 -0.519860E+04  0.108E-03    4.09       0.0  T
   2  -5198.6030742 -0.109413E-06  0.680E-04    4.09       2.4  T
   3  -5198.6030738  0.453918E-06  0.284E-04    4.09       5.7  T
     SCC iter.                  ...       10 min, 35.758 sec
     gradient                   ...        5 min, 41.888 sec
 * total energy  : -5104.0631643 Eh     change    :  -0.6228379E-04 Eh
   gradient norm :     0.0089269 Eh/a0  converged?    E=F G=F D=F
   time step     :     0.3025000 fs     power     :   0.2082590E-08
   step length   :     0.0092843 a0     speed     :   0.7423980E-03

........................................................................
.............................. CYCLE    8 ..............................
........................................................................

 iter      E             dE          RMSdq      gap      omega  full diag
   1  -5198.6093917 -0.519861E+04  0.120E-03    4.09       0.0  T
   2  -5198.6093918 -0.124815E-06  0.764E-04    4.09       2.1  T
   3  -5198.6093911  0.681928E-06  0.347E-04    4.09       4.6  T
     SCC iter.                  ...       10 min, 34.537 sec
     gradient                   ...        5 min, 39.538 sec
 * total energy  : -5104.0632121 Eh     change    :  -0.4777649E-04 Eh
   gradient norm :     0.0086235 Eh/a0  converged?    E=F G=F D=F
   time step     :     0.3327500 fs     power     :   0.1280332E-08
   step length   :     0.0104363 a0     speed     :   0.7586510E-03

........................................................................
.............................. CYCLE    9 ..............................
........................................................................

 iter      E             dE          RMSdq      gap      omega  full diag
   1  -5198.6163884 -0.519862E+04  0.129E-03    4.09       0.0  T
   2  -5198.6163885 -0.143255E-06  0.822E-04    4.09       2.0  T
   3  -5198.6163877  0.816695E-06  0.389E-04    4.09       4.1  T
     SCC iter.                  ...       10 min, 35.834 sec
     gradient                   ...        5 min, 40.070 sec
 * total energy  : -5104.0632461 Eh     change    :  -0.3403329E-04 Eh
   gradient norm :     0.0084201 Eh/a0  converged?    E=F G=F D=F
   time step     :     0.3660250 fs     power     :   0.6559885E-09
   step length   :     0.0113372 a0     speed     :   0.7492182E-03

........................................................................
.............................. CYCLE   10 ..............................
........................................................................

 iter      E             dE          RMSdq      gap      omega  full diag
   1  -5198.6235638 -0.519862E+04  0.135E-03    4.09       0.0  T
   2  -5198.6235639 -0.164556E-06  0.849E-04    4.09       1.9  T
   3  -5198.6235632  0.791293E-06  0.399E-04    4.09       4.0  T
     SCC iter.                  ...       10 min, 36.706 sec
     gradient                   ...        5 min, 39.600 sec
 * total energy  : -5104.0632677 Eh     change    :  -0.2156423E-04 Eh
   gradient norm :     0.0081110 Eh/a0  converged?    E=F G=F D=F
   time step     :     0.4026275 fs     power     :   0.1622181E-09
   step length   :     0.0119919 a0     speed     :   0.7204457E-03

........................................................................
.............................. CYCLE   11 ..............................
........................................................................

 iter      E             dE          RMSdq      gap      omega  full diag
   1  -5198.6301929 -0.519863E+04  0.136E-03    4.09       0.0  T
   2  -5198.6301931 -0.174064E-06  0.838E-04    4.09       1.9  T
   3  -5198.6301925  0.612250E-06  0.365E-04    4.09       4.4  T
     SCC iter.                  ...       10 min, 36.668 sec
     gradient                   ...        5 min, 38.203 sec
 * total energy  : -5104.0632772 Eh     change    :  -0.9513247E-05 Eh
   gradient norm :     0.0081490 Eh/a0  converged?    E=F G=F D=F
   time step     :     0.4428903 fs     power     :  -0.2340119E-09
   step length   :     0.0123832 a0     speed     :   0.6763183E-03

........................................................................
.............................. CYCLE   12 ..............................
........................................................................
 * reset velocities

 iter      E             dE          RMSdq      gap      omega  full diag
   1  -5198.6300260 -0.519863E+04  0.605E-05    4.09       0.0  T
   2  -5198.6300261 -0.517321E-08  0.539E-05    4.09      29.8  T
   3  -5198.6300261 -0.122336E-07  0.192E-05    4.09      83.9  T
     SCC iter.                  ...       10 min, 37.775 sec
     gradient                   ...        5 min, 38.915 sec
 * total energy  : -5104.0632810 Eh     change    :  -0.3769196E-05 Eh
   gradient norm :     0.0080066 Eh/a0  converged?    E=T G=F D=T
   time step     :     0.2214451 fs     power     :   0.1797374E-09
   step length   :     0.0003747 a0     speed     :   0.4092576E-04

........................................................................
.............................. CYCLE   13 ..............................
........................................................................

 iter      E             dE          RMSdq      gap      omega  full diag
   1  -5198.6296836 -0.519863E+04  0.727E-05    4.09       0.0  T
   2  -5198.6296836 -0.111686E-08  0.506E-05    4.09      31.8  T
   3  -5198.6296836  0.223372E-08  0.220E-05    4.09      73.1  T
     SCC iter.                  ...       10 min, 38.107 sec
     gradient                   ...        5 min, 38.443 sec
 * total energy  : -5104.0632868 Eh     change    :  -0.5817889E-05 Eh
   gradient norm :     0.0076863 Eh/a0  converged?    E=F G=F D=T
   time step     :     0.2214451 fs     power     :   0.3419841E-09
   step length   :     0.0007428 a0     speed     :   0.8113400E-04

........................................................................
.............................. CYCLE   14 ..............................
........................................................................

 iter      E             dE          RMSdq      gap      omega  full diag
   1  -5198.6291693 -0.519863E+04  0.104E-04    4.09       0.0  T
   2  -5198.6291693 -0.259115E-08  0.730E-05    4.09      22.0  T
   3  -5198.6291693  0.431919E-08  0.316E-05    4.09      50.9  T
     SCC iter.                  ...       10 min, 35.942 sec
     gradient                   ...        5 min, 37.734 sec
 * total energy  : -5104.0632949 Eh     change    :  -0.8149646E-05 Eh
   gradient norm :     0.0072227 Eh/a0  converged?    E=F G=F D=F
   time step     :     0.2214451 fs     power     :   0.4737671E-09
   step length   :     0.0010961 a0     speed     :   0.1197258E-03

........................................................................
.............................. CYCLE   15 ..............................
........................................................................

 iter      E             dE          RMSdq      gap      omega  full diag
   1  -5198.6284894 -0.519863E+04  0.135E-04    4.09       0.0  T
   2  -5198.6284894 -0.417276E-08  0.947E-05    4.09      17.0  T
   3  -5198.6284894  0.737782E-08  0.406E-05    4.09      39.6  T
     SCC iter.                  ...       10 min, 37.981 sec
     gradient                   ...        5 min, 37.583 sec
 * total energy  : -5104.0633048 Eh     change    :  -0.9860501E-05 Eh
   gradient norm :     0.0066376 Eh/a0  converged?    E=F G=F D=F
   time step     :     0.2214451 fs     power     :   0.5657787E-09
   step length   :     0.0014278 a0     speed     :   0.1559562E-03

........................................................................
.............................. CYCLE   16 ..............................
........................................................................

 iter      E             dE          RMSdq      gap      omega  full diag
   1  -5198.6276515 -0.519863E+04  0.163E-04    4.09       0.0  T
   2  -5198.6276515 -0.581713E-08  0.114E-04    4.09      14.1  T
   3  -5198.6276515  0.110813E-07  0.488E-05    4.09      33.0  T
     SCC iter.                  ...       10 min, 37.336 sec
     gradient                   ...        5 min, 36.198 sec
 * total energy  : -5104.0633156 Eh     change    :  -0.1082905E-04 Eh
   gradient norm :     0.0059612 Eh/a0  converged?    E=F G=F D=F
   time step     :     0.2214451 fs     power     :   0.6129393E-09
   step length   :     0.0017317 a0     speed     :   0.1891573E-03

........................................................................
.............................. CYCLE   17 ..............................
........................................................................

 iter      E             dE          RMSdq      gap      omega  full diag
   1  -5198.6266652 -0.519863E+04  0.187E-04    4.09       0.0  T
   2  -5198.6266652 -0.745968E-08  0.131E-04    4.09      12.3  T
   3  -5198.6266652  0.152650E-07  0.560E-05    4.09      28.7  T
     SCC iter.                  ...       10 min, 36.130 sec
     gradient                   ...        5 min, 38.811 sec
 * total energy  : -5104.0633267 Eh     change    :  -0.1104617E-04 Eh
   gradient norm :     0.0052338 Eh/a0  converged?    E=F G=F D=F
   time step     :     0.2214451 fs     power     :   0.6150118E-09
   step length   :     0.0020026 a0     speed     :   0.2187489E-03

........................................................................
.............................. CYCLE   18 ..............................
........................................................................

 iter      E             dE          RMSdq      gap      omega  full diag
   1  -5198.6254154 -0.519863E+04  0.229E-04    4.09       0.0  T
   2  -5198.6254154 -0.107229E-07  0.161E-04    4.09      10.0  T
   3  -5198.6254154  0.241726E-07  0.694E-05    4.09      23.2  T
     SCC iter.                  ...       10 min, 35.644 sec
     gradient                   ...        5 min, 40.107 sec
 * total energy  : -5104.0633383 Eh     change    :  -0.1160116E-04 Eh
   gradient norm :     0.0044337 Eh/a0  converged?    E=F G=F D=F
   time step     :     0.2435896 fs     power     :   0.5704855E-09
   step length   :     0.0024856 a0     speed     :   0.2468220E-03

........................................................................
.............................. CYCLE   19 ..............................
........................................................................

 iter      E             dE          RMSdq      gap      omega  full diag
   1  -5198.6238653 -0.519862E+04  0.272E-04    4.09       0.0  T
   2  -5198.6238653 -0.143591E-07  0.191E-04    4.09       8.4  T
   3  -5198.6238653  0.367299E-07  0.831E-05    4.09      19.4  T
     SCC iter.                  ...       10 min, 36.406 sec
     gradient                   ...        5 min, 37.732 sec
 * total energy  : -5104.0633495 Eh     change    :  -0.1125436E-04 Eh
   gradient norm :     0.0036624 Eh/a0  converged?    E=F G=F D=F
   time step     :     0.2679486 fs     power     :   0.4784474E-09
   step length   :     0.0030095 a0     speed     :   0.2716819E-03

........................................................................
.............................. CYCLE   20 ..............................
........................................................................

 iter      E             dE          RMSdq      gap      omega  full diag
   1  -5198.6219928 -0.519862E+04  0.311E-04    4.09       0.0  T
   2  -5198.6219928 -0.171376E-07  0.219E-04    4.09       7.4  T
   3  -5198.6219927  0.529371E-07  0.964E-05    4.09      16.7  T
     SCC iter.                  ...       10 min, 37.724 sec
     gradient                   ...        5 min, 38.217 sec
 * total energy  : -5104.0633593 Eh     change    :  -0.9813795E-05 Eh
   gradient norm :     0.0031167 Eh/a0  converged?    E=F G=F D=F
   time step     :     0.2947435 fs     power     :   0.3515413E-09
   step length   :     0.0035446 a0     speed     :   0.2908948E-03
 * RMSD in coord.:     0.0012164 a0     energy gain  -0.7104633E-03 Eh

........................................................................
.............................. CYCLE   21 ..............................
........................................................................

 iter      E             dE          RMSdq      gap      omega  full diag
   1  -5198.6203432 -0.519862E+04  0.261E-04    4.09       0.0  T
   2  -5198.6203432 -0.100854E-07  0.181E-04    4.09       8.9  T
   3  -5198.6203431  0.392147E-07  0.800E-05    4.09      20.1  T
     SCC iter.                  ...       10 min, 37.192 sec
     gradient                   ...        5 min, 36.586 sec
 * total energy  : -5104.0633655 Eh     change    :  -0.6194605E-05 Eh
   gradient norm :     0.0029835 Eh/a0  converged?    E=F G=F D=F
   time step     :     0.2500000 fs     power     :   0.2566354E-09
   step length   :     0.0030666 a0     speed     :   0.2967060E-03

........................................................................
.............................. CYCLE   22 ..............................
........................................................................

 iter      E             dE          RMSdq      gap      omega  full diag
   1  -5198.6187076 -0.519862E+04  0.247E-04    4.09       0.0  T
   2  -5198.6187076 -0.743239E-08  0.170E-04    4.09       9.5  T
   3  -5198.6187075  0.376522E-07  0.770E-05    4.09      20.9  T
     SCC iter.                  ...       10 min, 37.278 sec
     gradient                   ...        5 min, 38.854 sec
 * total energy  : -5104.0633702 Eh     change    :  -0.4702344E-05 Eh
   gradient norm :     0.0030663 Eh/a0  converged?    E=T G=F D=F
   time step     :     0.2500000 fs     power     :   0.1940045E-09
   step length   :     0.0030419 a0     speed     :   0.2943244E-03

........................................................................
.............................. CYCLE   23 ..............................
........................................................................

 iter      E             dE          RMSdq      gap      omega  full diag
   1  -5198.6171600 -0.519862E+04  0.230E-04    4.09       0.0  T
   2  -5198.6171600 -0.502041E-08  0.154E-04    4.09      10.4  T
   3  -5198.6171599  0.299251E-07  0.688E-05    4.09      23.4  T
     SCC iter.                  ...       10 min, 34.988 sec
     gradient                   ...        5 min, 37.049 sec
 * total energy  : -5104.0633742 Eh     change    :  -0.3964367E-05 Eh
   gradient norm :     0.0032216 Eh/a0  converged?    E=T G=F D=F
   time step     :     0.2500000 fs     power     :   0.1682709E-09
   step length   :     0.0029610 a0     speed     :   0.2864944E-03

........................................................................
.............................. CYCLE   24 ..............................
........................................................................

 iter      E             dE          RMSdq      gap      omega  full diag
   1  -5198.6157575 -0.519862E+04  0.215E-04    4.09       0.0  T
   2  -5198.6157575 -0.319324E-08  0.139E-04    4.09      11.6  T
   3  -5198.6157575  0.174614E-07  0.537E-05    4.09      29.9  T
     SCC iter.                  ...       10 min, 35.806 sec
     gradient                   ...        5 min, 38.837 sec
 * total energy  : -5104.0633781 Eh     change    :  -0.3868704E-05 Eh
   gradient norm :     0.0033477 Eh/a0  converged?    E=T G=F D=F
   time step     :     0.2500000 fs     power     :   0.1726690E-09
   step length   :     0.0028628 a0     speed     :   0.2769938E-03

........................................................................
.............................. CYCLE   25 ..............................
........................................................................

 iter      E             dE          RMSdq      gap      omega  full diag
   1  -5198.6145374 -0.519861E+04  0.206E-04    4.09       0.0  T
   2  -5198.6145374 -0.213095E-08  0.127E-04    4.09      12.7  T
   3  -5198.6145374  0.533419E-08  0.322E-05    4.09      50.0  T
     SCC iter.                  ...       10 min, 38.703 sec
     gradient                   ...        5 min, 36.687 sec
 * total energy  : -5104.0633822 Eh     change    :  -0.4132652E-05 Eh
   gradient norm :     0.0033986 Eh/a0  converged?    E=T G=F D=F
   time step     :     0.2500000 fs     power     :   0.1955176E-09
   step length   :     0.0027776 a0     speed     :   0.2687504E-03

........................................................................
.............................. CYCLE   26 ..............................
........................................................................

 iter      E             dE          RMSdq      gap      omega  full diag
   1  -5198.6134224 -0.519861E+04  0.223E-04    4.09       0.0  T
   2  -5198.6134224 -0.206819E-08  0.132E-04    4.09      12.1  T
   3  -5198.6134224  0.135424E-08  0.220E-05    4.09      73.0  T
     SCC iter.                  ...       10 min, 37.690 sec
     gradient                   ...        5 min, 38.503 sec
 * total energy  : -5104.0633873 Eh     change    :  -0.5079625E-05 Eh
   gradient norm :     0.0033560 Eh/a0  converged?    E=F G=F D=F
   time step     :     0.2750000 fs     power     :   0.2250790E-09
   step length   :     0.0030055 a0     speed     :   0.2643646E-03

........................................................................
.............................. CYCLE   27 ..............................
........................................................................

 iter      E             dE          RMSdq      gap      omega  full diag
   1  -5198.6124664 -0.519861E+04  0.247E-04    4.09       0.0  T
   2  -5198.6124664 -0.235650E-08  0.145E-04    4.09      11.1  T
   3  -5198.6124664  0.307318E-08  0.291E-05    4.09      55.2  T
     SCC iter.                  ...       10 min, 37.027 sec
     gradient                   ...        5 min, 39.793 sec
 * total energy  : -5104.0633934 Eh     change    :  -0.6171873E-05 Eh
   gradient norm :     0.0032124 Eh/a0  converged?    E=F G=F D=F
   time step     :     0.3025000 fs     power     :   0.2519388E-09
   step length   :     0.0033086 a0     speed     :   0.2645639E-03

........................................................................
.............................. CYCLE   28 ..............................
........................................................................

 iter      E             dE          RMSdq      gap      omega  full diag
   1  -5198.6117275 -0.519861E+04  0.280E-04    4.09       0.0  T
   2  -5198.6117275 -0.341606E-08  0.166E-04    4.09       9.7  T
   3  -5198.6117275  0.116997E-07  0.500E-05    4.09      32.2  T
     SCC iter.                  ...       10 min, 35.217 sec
     gradient                   ...        5 min, 40.722 sec
 * total energy  : -5104.0634007 Eh     change    :  -0.7302404E-05 Eh
   gradient norm :     0.0029824 Eh/a0  converged?    E=F G=F D=F
   time step     :     0.3327500 fs     power     :   0.2679465E-09
   step length   :     0.0037015 a0     speed     :   0.2690781E-03

........................................................................
.............................. CYCLE   29 ..............................
........................................................................

 iter      E             dE          RMSdq      gap      omega  full diag
   1  -5198.6112671 -0.519861E+04  0.321E-04    4.09       0.0  T
   2  -5198.6112671 -0.508498E-08  0.192E-04    4.09       8.4  T
   3  -5198.6112670  0.299706E-07  0.772E-05    4.09      20.8  T
     SCC iter.                  ...       10 min, 34.612 sec
     gradient                   ...        5 min, 38.088 sec
 * total energy  : -5104.0634089 Eh     change    :  -0.8122080E-05 Eh
   gradient norm :     0.0027049 Eh/a0  converged?    E=F G=F D=F
   time step     :     0.3660250 fs     power     :   0.2675946E-09
   step length   :     0.0041898 a0     speed     :   0.2768857E-03

........................................................................
.............................. CYCLE   30 ..............................
........................................................................

 iter      E             dE          RMSdq      gap      omega  full diag
   1  -5198.6111423 -0.519861E+04  0.363E-04    4.09       0.0  T
   2  -5198.6111423 -0.697401E-08  0.221E-04    4.09       7.3  T
   3  -5198.6111422  0.518239E-07  0.101E-04    4.09      16.0  T
     SCC iter.                  ...       10 min, 38.508 sec
     gradient                   ...        5 min, 37.665 sec
 * total energy  : -5104.0634174 Eh     change    :  -0.8572252E-05 Eh
   gradient norm :     0.0024462 Eh/a0  converged?    E=F G=F D=F
   time step     :     0.4026275 fs     power     :   0.2502690E-09
   step length   :     0.0047664 a0     speed     :   0.2863557E-03

........................................................................
.............................. CYCLE   31 ..............................
........................................................................

 iter      E             dE          RMSdq      gap      omega  full diag
   1  -5198.6113897 -0.519861E+04  0.400E-04    4.09       0.0  T
   2  -5198.6113897 -0.820364E-08  0.245E-04    4.09       6.6  T
   3  -5198.6113897  0.686659E-07  0.115E-04    4.09      14.0  T
     SCC iter.                  ...       10 min, 37.277 sec
     gradient                   ...        5 min, 37.826 sec
 * total energy  : -5104.0634260 Eh     change    :  -0.8598166E-05 Eh
   gradient norm :     0.0022772 Eh/a0  converged?    E=F G=F D=F
   time step     :     0.4428903 fs     power     :   0.2219727E-09
   step length   :     0.0054103 a0     speed     :   0.2954883E-03

........................................................................
.............................. CYCLE   32 ..............................
........................................................................

 iter      E             dE          RMSdq      gap      omega  full diag
   1  -5198.6120008 -0.519861E+04  0.426E-04    4.09       0.0  T
   2  -5198.6120008 -0.868476E-08  0.260E-04    4.09       6.2  T
   3  -5198.6120008  0.697701E-07  0.114E-04    4.09      14.1  T
     SCC iter.                  ...       10 min, 37.244 sec
     gradient                   ...        5 min, 39.328 sec
 * total energy  : -5104.0634344 Eh     change    :  -0.8364712E-05 Eh
   gradient norm :     0.0022260 Eh/a0  converged?    E=F G=F D=F
   time step     :     0.4871793 fs     power     :   0.1936675E-09
   step length   :     0.0060926 a0     speed     :   0.3025038E-03

........................................................................
.............................. CYCLE   33 ..............................
........................................................................

 iter      E             dE          RMSdq      gap      omega  full diag
   1  -5198.6129076 -0.519861E+04  0.436E-04    4.09       0.0  T
   2  -5198.6129076 -0.871023E-08  0.262E-04    4.09       6.1  T
   3  -5198.6129076  0.448545E-07  0.917E-05    4.09      17.5  T
     SCC iter.                  ...       10 min, 36.396 sec
     gradient                   ...        5 min, 38.633 sec
 * total energy  : -5104.0634429 Eh     change    :  -0.8544487E-05 Eh
   gradient norm :     0.0022495 Eh/a0  converged?    E=F G=F D=F
   time step     :     0.5358972 fs     power     :   0.1750083E-09
   step length   :     0.0067993 a0     speed     :   0.3069018E-03

........................................................................
.............................. CYCLE   34 ..............................
........................................................................

 iter      E             dE          RMSdq      gap      omega  full diag
   1  -5198.6139891 -0.519861E+04  0.430E-04    4.09       0.0  T
   2  -5198.6139891 -0.854197E-08  0.256E-04    4.09       6.3  T
   3  -5198.6139891  0.106565E-07  0.516E-05    4.09      31.1  T
     SCC iter.                  ...       10 min, 35.827 sec
     gradient                   ...        5 min, 36.283 sec
 * total energy  : -5104.0634518 Eh     change    :  -0.8906059E-05 Eh
   gradient norm :     0.0023114 Eh/a0  converged?    E=F G=F D=F
   time step     :     0.5894869 fs     power     :   0.1722543E-09
   step length   :     0.0075529 a0     speed     :   0.3099226E-03

........................................................................
.............................. CYCLE   35 ..............................
........................................................................

 iter      E             dE          RMSdq      gap      omega  full diag
   1  -5198.6150916 -0.519862E+04  0.414E-04    4.09       0.0  T
   2  -5198.6150917 -0.722866E-08  0.250E-04    4.09       6.4  T
   3  -5198.6150916  0.135051E-07  0.542E-05    4.09      29.7  T
     SCC iter.                  ...       10 min, 36.492 sec
     gradient                   ...        5 min, 36.386 sec
 * total energy  : -5104.0634621 Eh     change    :  -0.1025280E-04 Eh
   gradient norm :     0.0023167 Eh/a0  converged?    E=F G=F D=F
   time step     :     0.6484356 fs     power     :   0.1847785E-09
   step length   :     0.0084162 a0     speed     :   0.3139546E-03

........................................................................
.............................. CYCLE   36 ..............................
........................................................................

 iter      E             dE          RMSdq      gap      omega  full diag
   1  -5198.6160375 -0.519862E+04  0.406E-04    4.09       0.0  T
   2  -5198.6160375 -0.615728E-08  0.250E-04    4.09       6.4  T
   3  -5198.6160374  0.241380E-07  0.675E-05    4.09      23.8  T
     SCC iter.                  ...       10 min, 36.723 sec
     gradient                   ...        5 min, 37.370 sec
 * total energy  : -5104.0634743 Eh     change    :  -0.1217842E-04 Eh
   gradient norm :     0.0021890 Eh/a0  converged?    E=F G=F D=F
   time step     :     0.7132792 fs     power     :   0.2001548E-09
   step length   :     0.0094778 a0     speed     :   0.3214119E-03

........................................................................
.............................. CYCLE   37 ..............................
........................................................................

 iter      E             dE          RMSdq      gap      omega  full diag
   1  -5198.6166272 -0.519862E+04  0.412E-04    4.09       0.0  T
   2  -5198.6166273 -0.936780E-08  0.261E-04    4.09       6.2  T
   3  -5198.6166272  0.548671E-07  0.958E-05    4.09      16.8  T
     SCC iter.                  ...       10 min, 37.722 sec
     gradient                   ...        5 min, 38.376 sec
 * total energy  : -5104.0634882 Eh     change    :  -0.1387436E-04 Eh
   gradient norm :     0.0021073 Eh/a0  converged?    E=F G=F D=F
   time step     :     0.7846071 fs     power     :   0.2046500E-09
   step length   :     0.0107961 a0     speed     :   0.3328341E-03

........................................................................
.............................. CYCLE   38 ..............................
........................................................................

 iter      E             dE          RMSdq      gap      omega  full diag
   1  -5198.6166734 -0.519862E+04  0.438E-04    4.09       0.0  T
   2  -5198.6166734 -0.119398E-07  0.272E-04    4.09       5.9  T
   3  -5198.6166734  0.453019E-07  0.908E-05    4.09      17.7  T
     SCC iter.                  ...       10 min, 34.928 sec
     gradient                   ...        5 min, 40.336 sec
 * total energy  : -5104.0635039 Eh     change    :  -0.1577173E-04 Eh
   gradient norm :     0.0022250 Eh/a0  converged?    E=F G=F D=F
   time step     :     0.8630678 fs     power     :   0.2163733E-09
   step length   :     0.0123521 a0     speed     :   0.3461862E-03

........................................................................
.............................. CYCLE   39 ..............................
........................................................................

 iter      E             dE          RMSdq      gap      omega  full diag
   1  -5198.6162153 -0.519862E+04  0.504E-04    4.09       0.0  T
   2  -5198.6162153 -0.123282E-07  0.303E-04    4.09       5.3  T
   3  -5198.6162153  0.198115E-07  0.677E-05    4.09      23.8  T
     SCC iter.                  ...       10 min, 34.949 sec
     gradient                   ...        5 min, 38.746 sec
 * total energy  : -5104.0635234 Eh     change    :  -0.1945349E-04 Eh
   gradient norm :     0.0021610 Eh/a0  converged?    E=F G=F D=F
   time step     :     0.9493746 fs     power     :   0.2505132E-09
   step length   :     0.0142154 a0     speed     :   0.3621911E-03

........................................................................
.............................. CYCLE   40 ..............................
........................................................................

 iter      E             dE          RMSdq      gap      omega  full diag
   1  -5198.6157580 -0.519862E+04  0.584E-04    4.09       0.0  T
   2  -5198.6157580 -0.158525E-07  0.355E-04    4.09       4.5  T
   3  -5198.6157579  0.433074E-07  0.930E-05    4.09      17.3  T
     SCC iter.                  ...       10 min, 34.474 sec
     gradient                   ...        5 min, 39.443 sec
 * total energy  : -5104.0635466 Eh     change    :  -0.2323743E-04 Eh
   gradient norm :     0.0019121 Eh/a0  converged?    E=F G=F D=F
   time step     :     1.0443120 fs     power     :   0.2661926E-09
   step length   :     0.0166150 a0     speed     :   0.3848438E-03

........................................................................
.............................. CYCLE   41 ..............................
........................................................................

 iter      E             dE          RMSdq      gap      omega  full diag
   1  -5198.6163047 -0.519862E+04  0.623E-04    4.09       0.0  T
   2  -5198.6163047 -0.168629E-07  0.381E-04    4.09       4.2  T
   3  -5198.6163047  0.589171E-07  0.107E-04    4.09      15.0  T
     SCC iter.                  ...       10 min, 38.781 sec
     gradient                   ...        5 min, 37.861 sec
 * total energy  : -5104.0635721 Eh     change    :  -0.2551196E-04 Eh
   gradient norm :     0.0020255 Eh/a0  converged?    E=F G=F D=F
   time step     :     1.1487432 fs     power     :   0.2599064E-09
   step length   :     0.0195268 a0     speed     :   0.4111720E-03

........................................................................
.............................. CYCLE   42 ..............................
........................................................................

 iter      E             dE          RMSdq      gap      omega  full diag
   1  -5198.6181863 -0.519862E+04  0.680E-04    4.09       0.0  T
   2  -5198.6181863 -0.122063E-07  0.403E-04    4.09       4.0  T
   3  -5198.6181863  0.132359E-07  0.624E-05    4.09      25.8  T
     SCC iter.                  ...       10 min, 35.838 sec
     gradient                   ...        5 min, 38.433 sec
 * total energy  : -5104.0636023 Eh     change    :  -0.3019135E-04 Eh
   gradient norm :     0.0020795 Eh/a0  converged?    E=F G=F D=F
   time step     :     1.2500000 fs     power     :   0.2989222E-09
   step length   :     0.0225016 a0     speed     :   0.4354309E-03
 * RMSD in coord.:     0.0024692 a0     energy gain  -0.2429959E-03 Eh

........................................................................
.............................. CYCLE   43 ..............................
........................................................................

 iter      E             dE          RMSdq      gap      omega  full diag
   1  -5198.6185262 -0.519862E+04  0.134E-04    4.09       0.0  T
   2  -5198.6185262 -0.639375E-09  0.789E-05    4.09      20.4  T
   3  -5198.6185261  0.142427E-08  0.181E-05    4.09      88.7  T
     SCC iter.                  ...       10 min, 37.409 sec
     gradient                   ...        5 min, 38.708 sec
 * total energy  : -5104.0636085 Eh     change    :  -0.6190134E-05 Eh
   gradient norm :     0.0020074 Eh/a0  converged?    E=F G=F D=F
   time step     :     0.2500000 fs     power     :   0.3248836E-09
   step length   :     0.0044181 a0     speed     :   0.4274765E-03

........................................................................
.............................. CYCLE   44 ..............................
........................................................................

 iter      E             dE          RMSdq      gap      omega  full diag
   1  -5198.6188104 -0.519862E+04  0.142E-04    4.09       0.0  T
   2  -5198.6188104 -0.758519E-09  0.853E-05    4.09      18.8  T
   3  -5198.6188104  0.348246E-08  0.271E-05    4.09      59.4  T
     SCC iter.                  ...       10 min, 39.422 sec
     gradient                   ...        5 min, 38.490 sec
 * total energy  : -5104.0636150 Eh     change    :  -0.6506421E-05 Eh
   gradient norm :     0.0018319 Eh/a0  converged?    E=F G=F D=F
   time step     :     0.2500000 fs     power     :   0.3387367E-09
   step length   :     0.0043811 a0     speed     :   0.4238992E-03

........................................................................
.............................. CYCLE   45 ..............................
........................................................................

 iter      E             dE          RMSdq      gap      omega  full diag
   1  -5198.6190276 -0.519862E+04  0.156E-04    4.09       0.0  T
   2  -5198.6190276 -0.124510E-08  0.949E-05    4.09      17.0  T
   3  -5198.6190276  0.469390E-08  0.310E-05    4.09      51.8  T
     SCC iter.                  ...       10 min, 37.173 sec
     gradient                   ...        5 min, 37.067 sec
 * total energy  : -5104.0636215 Eh     change    :  -0.6531628E-05 Eh
   gradient norm :     0.0016240 Eh/a0  converged?    E=F G=F D=F
   time step     :     0.2500000 fs     power     :   0.3358949E-09
   step length   :     0.0043892 a0     speed     :   0.4246823E-03

........................................................................
.............................. CYCLE   46 ..............................
........................................................................

 iter      E             dE          RMSdq      gap      omega  full diag
   1  -5198.6191762 -0.519862E+04  0.167E-04    4.09       0.0  T
   2  -5198.6191762 -0.142973E-08  0.102E-04    4.09      15.7  T
   3  -5198.6191762  0.543878E-08  0.327E-05    4.09      49.2  T
     SCC iter.                  ...       10 min, 36.640 sec
     gradient                   ...        5 min, 39.436 sec
 * total energy  : -5104.0636279 Eh     change    :  -0.6300574E-05 Eh
   gradient norm :     0.0014804 Eh/a0  converged?    E=F G=F D=F
   time step     :     0.2500000 fs     power     :   0.3203473E-09
   step length   :     0.0044313 a0     speed     :   0.4287529E-03

........................................................................
.............................. CYCLE   47 ..............................
........................................................................

 iter      E             dE          RMSdq      gap      omega  full diag
   1  -5198.6192663 -0.519862E+04  0.169E-04    4.09       0.0  T
   2  -5198.6192663 -0.130603E-08  0.103E-04    4.09      15.6  T
   3  -5198.6192663  0.482396E-08  0.305E-05    4.09      52.8  T
     SCC iter.                  ...       10 min, 37.424 sec
     gradient                   ...        5 min, 40.063 sec
 * total energy  : -5104.0636338 Eh     change    :  -0.5976691E-05 Eh
   gradient norm :     0.0014623 Eh/a0  converged?    E=F G=F D=F
   time step     :     0.2500000 fs     power     :   0.3028709E-09
   step length   :     0.0044805 a0     speed     :   0.4335121E-03

........................................................................
.............................. CYCLE   48 ..............................
........................................................................

 iter      E             dE          RMSdq      gap      omega  full diag
   1  -5198.6193215 -0.519862E+04  0.177E-04    4.09       0.0  T
   2  -5198.6193215 -0.126147E-08  0.107E-04    4.09      15.1  T
   3  -5198.6193215  0.401906E-08  0.274E-05    4.09      58.6  T
     SCC iter.                  ...       10 min, 35.315 sec
     gradient                   ...        5 min, 38.511 sec
 * total energy  : -5104.0636401 Eh     change    :  -0.6256514E-05 Eh
   gradient norm :     0.0015445 Eh/a0  converged?    E=F G=F D=F
   time step     :     0.2750000 fs     power     :   0.2929286E-09
   step length   :     0.0049639 a0     speed     :   0.4366212E-03

........................................................................
.............................. CYCLE   49 ..............................
........................................................................

 iter      E             dE          RMSdq      gap      omega  full diag
   1  -5198.6193577 -0.519862E+04  0.175E-04    4.09       0.0  T
   2  -5198.6193577 -0.954060E-09  0.105E-04    4.09      15.4  T
   3  -5198.6193577  0.190175E-08  0.201E-05    4.09      79.8  T
     SCC iter.                  ...       10 min, 37.823 sec
     gradient                   ...        5 min, 38.209 sec
 * total energy  : -5104.0636470 Eh     change    :  -0.6907169E-05 Eh
   gradient norm :     0.0016397 Eh/a0  converged?    E=F G=F D=F
   time step     :     0.3025000 fs     power     :   0.2956488E-09
   step length   :     0.0054681 a0     speed     :   0.4372492E-03

........................................................................
.............................. CYCLE   50 ..............................
........................................................................

 iter      E             dE          RMSdq      gap      omega  full diag
   1  -5198.6193840 -0.519862E+04  0.173E-04    4.09       0.0  T
   2  -5198.6193840 -0.634827E-09  0.102E-04    4.09      15.7  T
   3  -5198.6193840  0.598448E-09  0.140E-05    4.09     114.6  T
     SCC iter.                  ...       10 min, 35.344 sec
     gradient                   ...        5 min, 38.150 sec
 * total energy  : -5104.0636548 Eh     change    :  -0.7809928E-05 Eh
   gradient norm :     0.0016682 Eh/a0  converged?    E=F G=F D=F
   time step     :     0.3327500 fs     power     :   0.3081959E-09
   step length   :     0.0060174 a0     speed     :   0.4374293E-03

........................................................................
.............................. CYCLE   51 ..............................
........................................................................

 iter      E             dE          RMSdq      gap      omega  full diag
   1  -5198.6193934 -0.519862E+04  0.179E-04    4.09       0.0  T
   2  -5198.6193934 -0.709406E-09  0.106E-04    4.09      15.1  T
   3  -5198.6193934  0.126511E-08  0.170E-05    4.09      94.6  T
     SCC iter.                  ...       10 min, 34.572 sec
     gradient                   ...        5 min, 38.846 sec
 * total energy  : -5104.0636638 Eh     change    :  -0.8956883E-05 Eh
   gradient norm :     0.0015983 Eh/a0  converged?    E=F G=F D=F
   time step     :     0.3660250 fs     power     :   0.3210540E-09
   step length   :     0.0066549 a0     speed     :   0.4397932E-03

........................................................................
.............................. CYCLE   52 ..............................
........................................................................

 iter      E             dE          RMSdq      gap      omega  full diag
   1  -5198.6193557 -0.519862E+04  0.200E-04    4.09       0.0  T
   2  -5198.6193557 -0.121418E-08  0.120E-04    4.09      13.4  T
   3  -5198.6193556  0.409818E-08  0.284E-05    4.09      56.6  T
     SCC iter.                  ...       10 min, 34.826 sec
     gradient                   ...        5 min, 41.188 sec
 * total energy  : -5104.0636738 Eh     change    :  -0.1007526E-04 Eh
   gradient norm :     0.0014753 Eh/a0  converged?    E=F G=F D=F
   time step     :     0.4026275 fs     power     :   0.3253181E-09
   step length   :     0.0074235 a0     speed     :   0.4459840E-03

........................................................................
.............................. CYCLE   53 ..............................
........................................................................

 iter      E             dE          RMSdq      gap      omega  full diag
   1  -5198.6192164 -0.519862E+04  0.227E-04    4.09       0.0  T
   2  -5198.6192164 -0.196087E-08  0.139E-04    4.09      11.6  T
   3  -5198.6192164  0.810087E-08  0.386E-05    4.09      41.7  T
     SCC iter.                  ...       10 min, 35.997 sec
     gradient                   ...        5 min, 38.032 sec
 * total energy  : -5104.0636849 Eh     change    :  -0.1104537E-04 Eh
   gradient norm :     0.0014136 Eh/a0  converged?    E=F G=F D=F
   time step     :     0.4428903 fs     power     :   0.3205101E-09
   step length   :     0.0083461 a0     speed     :   0.4558282E-03

........................................................................
.............................. CYCLE   54 ..............................
........................................................................

 iter      E             dE          RMSdq      gap      omega  full diag
   1  -5198.6189272 -0.519862E+04  0.251E-04    4.09       0.0  T
   2  -5198.6189272 -0.205637E-08  0.152E-04    4.09      10.6  T
   3  -5198.6189272  0.787804E-08  0.385E-05    4.09      41.7  T
     SCC iter.                  ...       10 min, 34.898 sec
     gradient                   ...        5 min, 38.989 sec
 * total energy  : -5104.0636969 Eh     change    :  -0.1197232E-04 Eh
   gradient norm :     0.0014592 Eh/a0  converged?    E=F G=F D=F
   time step     :     0.4871793 fs     power     :   0.3172283E-09
   step length   :     0.0093984 a0     speed     :   0.4666391E-03

........................................................................
.............................. CYCLE   55 ..............................
........................................................................

 iter      E             dE          RMSdq      gap      omega  full diag
   1  -5198.6185081 -0.519862E+04  0.267E-04    4.09       0.0  T
   2  -5198.6185081 -0.159707E-08  0.159E-04    4.09      10.1  T
   3  -5198.6185081  0.316595E-08  0.276E-05    4.09      58.3  T
     SCC iter.                  ...       10 min, 35.695 sec
     gradient                   ...        5 min, 37.442 sec
 * total energy  : -5104.0637102 Eh     change    :  -0.1331661E-04 Eh
   gradient norm :     0.0015138 Eh/a0  converged?    E=F G=F D=F
   time step     :     0.5358972 fs     power     :   0.3241193E-09
   step length   :     0.0105510 a0     speed     :   0.4762424E-03

........................................................................
.............................. CYCLE   56 ..............................
........................................................................

 iter      E             dE          RMSdq      gap      omega  full diag
   1  -5198.6180835 -0.519862E+04  0.285E-04    4.09       0.0  T
   2  -5198.6180835 -0.161981E-08  0.168E-04    4.09       9.6  T
   3  -5198.6180835  0.300042E-08  0.274E-05    4.09      58.8  T
     SCC iter.                  ...       10 min, 35.140 sec
     gradient                   ...        5 min, 36.956 sec
 * total energy  : -5104.0637254 Eh     change    :  -0.1521971E-04 Eh
   gradient norm :     0.0015027 Eh/a0  converged?    E=F G=F D=F
   time step     :     0.5894869 fs     power     :   0.3376641E-09
   step length   :     0.0118510 a0     speed     :   0.4862903E-03

........................................................................
.............................. CYCLE   57 ..............................
........................................................................

 iter      E             dE          RMSdq      gap      omega  full diag
   1  -5198.6178693 -0.519862E+04  0.315E-04    4.09       0.0  T
   2  -5198.6178693 -0.214459E-08  0.188E-04    4.09       8.5  T
   3  -5198.6178693  0.104837E-07  0.439E-05    4.09      36.7  T
     SCC iter.                  ...       10 min, 35.367 sec
     gradient                   ...        5 min, 40.067 sec
 * total energy  : -5104.0637428 Eh     change    :  -0.1738017E-04 Eh
   gradient norm :     0.0014239 Eh/a0  converged?    E=F G=F D=F
   time step     :     0.6484356 fs     power     :   0.3487792E-09
   step length   :     0.0133818 a0     speed     :   0.4991880E-03

........................................................................
.............................. CYCLE   58 ..............................
........................................................................

 iter      E             dE          RMSdq      gap      omega  full diag
   1  -5198.6180833 -0.519862E+04  0.359E-04    4.09       0.0  T
   2  -5198.6180833 -0.316504E-08  0.216E-04    4.09       7.4  T
   3  -5198.6180833  0.203545E-07  0.604E-05    4.09      26.7  T
     SCC iter.                  ...       10 min, 35.838 sec
     gradient                   ...        5 min, 37.553 sec
 * total energy  : -5104.0637621 Eh     change    :  -0.1933587E-04 Eh
   gradient norm :     0.0013904 Eh/a0  converged?    E=F G=F D=F
   time step     :     0.7132792 fs     power     :   0.3524062E-09
   step length   :     0.0152136 a0     speed     :   0.5159277E-03

........................................................................
.............................. CYCLE   59 ..............................
........................................................................

 iter      E             dE          RMSdq      gap      omega  full diag
   1  -5198.6187326 -0.519862E+04  0.390E-04    4.09       0.0  T
   2  -5198.6187326 -0.261389E-08  0.232E-04    4.09       6.9  T
   3  -5198.6187326  0.850105E-08  0.419E-05    4.09      38.4  T
     SCC iter.                  ...       10 min, 36.758 sec
     gradient                   ...        5 min, 41.740 sec
 * total energy  : -5104.0637839 Eh     change    :  -0.2176800E-04 Eh
   gradient norm :     0.0014586 Eh/a0  converged?    E=F G=F D=F
   time step     :     0.7846071 fs     power     :   0.3610706E-09
   step length   :     0.0173274 a0     speed     :   0.5341909E-03

........................................................................
.............................. CYCLE   60 ..............................
........................................................................

 iter      E             dE          RMSdq      gap      omega  full diag
   1  -5198.6195173 -0.519862E+04  0.425E-04    4.09       0.0  T
   2  -5198.6195173 -0.302043E-08  0.251E-04    4.09       6.4  T
   3  -5198.6195173  0.115588E-07  0.487E-05    4.09      33.0  T
     SCC iter.                  ...       10 min, 36.047 sec
     gradient                   ...        5 min, 38.376 sec
 * total energy  : -5104.0638088 Eh     change    :  -0.2496917E-04 Eh
   gradient norm :     0.0014141 Eh/a0  converged?    E=F G=F D=F
   time step     :     0.8630678 fs     power     :   0.3787923E-09
   step length   :     0.0197117 a0     speed     :   0.5524513E-03

........................................................................
.............................. CYCLE   61 ..............................
........................................................................

 iter      E             dE          RMSdq      gap      omega  full diag
   1  -5198.6200678 -0.519862E+04  0.487E-04    4.09       0.0  T
   2  -5198.6200678 -0.478667E-08  0.289E-04    4.09       5.6  T
   3  -5198.6200678  0.208665E-07  0.622E-05    4.09      25.9  T
     SCC iter.                  ...       10 min, 32.431 sec
     gradient                   ...        5 min, 37.098 sec
 * total energy  : -5104.0638374 Eh     change    :  -0.2856128E-04 Eh
   gradient norm :     0.0013612 Eh/a0  converged?    E=F G=F D=F
   time step     :     0.9493746 fs     power     :   0.3887063E-09
   step length   :     0.0225647 a0     speed     :   0.5749198E-03

........................................................................
.............................. CYCLE   62 ..............................
........................................................................

 iter      E             dE          RMSdq      gap      omega  full diag
   1  -5198.6202103 -0.519862E+04  0.539E-04    4.09       0.0  T
   2  -5198.6202103 -0.523596E-08  0.319E-04    4.09       5.0  T
   3  -5198.6202103  0.152359E-07  0.574E-05    4.09      28.0  T
     SCC iter.                  ...       10 min, 36.572 sec
     gradient                   ...        5 min, 42.402 sec
 * total energy  : -5104.0638696 Eh     change    :  -0.3218946E-04 Eh
   gradient norm :     0.0014306 Eh/a0  converged?    E=F G=F D=F
   time step     :     1.0443120 fs     power     :   0.4008828E-09
   step length   :     0.0259213 a0     speed     :   0.6004015E-03

........................................................................
.............................. CYCLE   63 ..............................
........................................................................

 iter      E             dE          RMSdq      gap      omega  full diag
   1  -5198.6200034 -0.519862E+04  0.599E-04    4.09       0.0  T
   2  -5198.6200034 -0.675209E-08  0.355E-04    4.09       4.5  T
   3  -5198.6200033  0.294740E-07  0.765E-05    4.09      21.0  T
     SCC iter.                  ...       10 min, 35.240 sec
     gradient                   ...        5 min, 42.216 sec
 * total energy  : -5104.0639066 Eh     change    :  -0.3704727E-04 Eh
   gradient norm :     0.0013671 Eh/a0  converged?    E=F G=F D=F
   time step     :     1.1487432 fs     power     :   0.4222669E-09
   step length   :     0.0297363 a0     speed     :   0.6261502E-03

........................................................................
.............................. CYCLE   64 ..............................
........................................................................

 iter      E             dE          RMSdq      gap      omega  full diag
   1  -5198.6197673 -0.519862E+04  0.692E-04    4.09       0.0  T
   2  -5198.6197673 -0.947966E-08  0.413E-04    4.09       3.9  T
   3  -5198.6197672  0.609971E-07  0.105E-04    4.09      15.4  T
     SCC iter.                  ...       10 min, 35.103 sec
     gradient                   ...        5 min, 38.311 sec
 * total energy  : -5104.0639484 Eh     change    :  -0.4176304E-04 Eh
   gradient norm :     0.0013662 Eh/a0  converged?    E=F G=F D=F
   time step     :     1.2500000 fs     power     :   0.4322600E-09
   step length   :     0.0339445 a0     speed     :   0.6568634E-03

........................................................................
.............................. CYCLE   65 ..............................
........................................................................

 iter      E             dE          RMSdq      gap      omega  full diag
   1  -5198.6202576 -0.519862E+04  0.715E-04    4.09       0.0  T
   2  -5198.6202577 -0.677301E-08  0.422E-04    4.09       3.8  T
   3  -5198.6202576  0.270593E-07  0.777E-05    4.09      20.7  T
     SCC iter.                  ...       10 min, 37.266 sec
     gradient                   ...        5 min, 39.608 sec
 * total energy  : -5104.0639916 Eh     change    :  -0.4322076E-04 Eh
   gradient norm :     0.0013655 Eh/a0  converged?    E=F G=F D=F
   time step     :     1.2500000 fs     power     :   0.4531166E-09
   step length   :     0.0354295 a0     speed     :   0.6855980E-03

........................................................................
.............................. CYCLE   66 ..............................
........................................................................

 iter      E             dE          RMSdq      gap      omega  full diag
   1  -5198.6208533 -0.519862E+04  0.740E-04    4.09       0.0  T
   2  -5198.6208533 -0.103373E-07  0.439E-04    4.09       3.7  T
   3  -5198.6208533  0.430828E-07  0.927E-05    4.09      17.3  T
     SCC iter.                  ...       10 min, 34.305 sec
     gradient                   ...        5 min, 36.890 sec
 * total energy  : -5104.0640365 Eh     change    :  -0.4484038E-04 Eh
   gradient norm :     0.0013374 Eh/a0  converged?    E=F G=F D=F
   time step     :     1.2500000 fs     power     :   0.4639841E-09
   step length   :     0.0369201 a0     speed     :   0.7144444E-03

........................................................................
.............................. CYCLE   67 ..............................
........................................................................

 iter      E             dE          RMSdq      gap      omega  full diag
   1  -5198.6210275 -0.519862E+04  0.763E-04    4.09       0.0  T
   2  -5198.6210275 -0.116461E-07  0.449E-04    4.09       3.6  T
   3  -5198.6210274  0.307800E-07  0.886E-05    4.09      18.2  T
     SCC iter.                  ...       10 min, 37.313 sec
     gradient                   ...        5 min, 38.955 sec
 * total energy  : -5104.0640823 Eh     change    :  -0.4581055E-04 Eh
   gradient norm :     0.0014844 Eh/a0  converged?    E=F G=F D=F
   time step     :     1.2500000 fs     power     :   0.4750540E-09
   step length   :     0.0383751 a0     speed     :   0.7425991E-03
 * RMSD in coord.:     0.0060688 a0     energy gain  -0.4799512E-03 Eh

........................................................................
.............................. CYCLE   68 ..............................
........................................................................

 iter      E             dE          RMSdq      gap      omega  full diag
   1  -5198.6210741 -0.519862E+04  0.150E-04    4.09       0.0  T
   2  -5198.6210741 -0.404725E-09  0.882E-05    4.09      18.2  T
   3  -5198.6210741  0.152522E-08  0.200E-05    4.09      80.3  T
     SCC iter.                  ...       10 min, 34.285 sec
     gradient                   ...        5 min, 38.945 sec
 * total energy  : -5104.0640915 Eh     change    :  -0.9270961E-05 Eh
   gradient norm :     0.0013676 Eh/a0  converged?    E=F G=F D=F
   time step     :     0.2500000 fs     power     :   0.4897143E-09
   step length   :     0.0075972 a0     speed     :   0.7350699E-03

........................................................................
.............................. CYCLE   69 ..............................
........................................................................

 iter      E             dE          RMSdq      gap      omega  full diag
   1  -5198.6211459 -0.519862E+04  0.162E-04    4.09       0.0  T
   2  -5198.6211459 -0.193450E-08  0.974E-05    4.09      16.5  T
   3  -5198.6211459  0.429827E-08  0.356E-05    4.09      45.2  T
     SCC iter.                  ...       10 min, 34.335 sec
     gradient                   ...        5 min, 38.915 sec
 * total energy  : -5104.0641009 Eh     change    :  -0.9358938E-05 Eh
   gradient norm :     0.0012559 Eh/a0  converged?    E=F G=F D=F
   time step     :     0.2500000 fs     power     :   0.4838353E-09
   step length   :     0.0075931 a0     speed     :   0.7346719E-03

........................................................................
.............................. CYCLE   70 ..............................
........................................................................

 iter      E             dE          RMSdq      gap      omega  full diag
   1  -5198.6212308 -0.519862E+04  0.164E-04    4.09       0.0  T
   2  -5198.6212308 -0.157888E-08  0.985E-05    4.09      16.3  T
   3  -5198.6212308  0.319869E-08  0.292E-05    4.09      55.0  T
     SCC iter.                  ...       10 min, 36.316 sec
     gradient                   ...        5 min, 38.762 sec
 * total energy  : -5104.0641100 Eh     change    :  -0.9122424E-05 Eh
   gradient norm :     0.0013089 Eh/a0  converged?    E=F G=F D=F
   time step     :     0.2500000 fs     power     :   0.4753723E-09
   step length   :     0.0076339 a0     speed     :   0.7386164E-03

........................................................................
.............................. CYCLE   71 ..............................
........................................................................

 iter      E             dE          RMSdq      gap      omega  full diag
   1  -5198.6213130 -0.519862E+04  0.155E-04    4.09       0.0  T
   2  -5198.6213130 -0.536602E-09  0.928E-05    4.09      17.3  T
[...]
  3609   6 C     3614   6 C                                       1.3908488
  3613   6 C     3614   6 C                                       1.3824737
  3608   6 C     3615   6 C                                       1.5354287
  3615   6 C     3616   6 C                                       1.5390218
  3617   6 C     3618   6 C                                       1.3903917
  3618   6 C     3619   6 C                                       1.3828651
  3619   6 C     3620   6 C                                       1.3842314
  3620   6 C     3621   6 C                                       1.3836694
  3617   6 C     3622   6 C                                       1.3902524
  3621   6 C     3622   6 C                                       1.3844488
  3625   6 C     3626   6 C                                       1.3927429
  3626   6 C     3627   6 C                                       1.3818266
  3627   6 C     3628   6 C                                       1.3851592
  3628   6 C     3629   6 C                                       1.3821498
  3625   6 C     3630   6 C                                       1.3880247
  3629   6 C     3630   6 C                                       1.3852791
  3624   6 C     3631   6 C                                       1.5316830
  3631   6 C     3632   6 C                                       1.5350838
  3633   6 C     3634   6 C                                       1.3910264
  3634   6 C     3635   6 C                                       1.3816909
  3635   6 C     3636   6 C                                       1.3841257
  3636   6 C     3637   6 C                                       1.3837929
  3633   6 C     3638   6 C                                       1.3889551
  3637   6 C     3638   6 C                                       1.3853123
  3632   6 C     3639   6 C                                       1.5394807
  3639   6 C     3640   6 C                                       1.5384399
  3641   6 C     3642   6 C                                       1.3906169
  3642   6 C     3643   6 C                                       1.3836544
  3643   6 C     3644   6 C                                       1.3845329
  3644   6 C     3645   6 C                                       1.3846979
  3641   6 C     3646   6 C                                       1.3910913
  3645   6 C     3646   6 C                                       1.3841479
  3649   6 C     3650   6 C                                       1.3893240
  3650   6 C     3651   6 C                                       1.3848136
  3651   6 C     3652   6 C                                       1.3835754
  3652   6 C     3653   6 C                                       1.3852565
  3649   6 C     3654   6 C                                       1.3910001
  3653   6 C     3654   6 C                                       1.3828965
  3648   6 C     3655   6 C                                       1.5299896
  3655   6 C     3656   6 C                                       1.5385993
  3657   6 C     3658   6 C                                       1.3910648
  3658   6 C     3659   6 C                                       1.3836010
  3659   6 C     3660   6 C                                       1.3833556
  3660   6 C     3661   6 C                                       1.3834248
  3657   6 C     3662   6 C                                       1.3889582
  3661   6 C     3662   6 C                                       1.3835268
  3656   6 C     3663   6 C                                       1.5402251
  3663   6 C     3664   6 C                                       1.5344941
  3665   6 C     3666   6 C                                       1.3890291
  3666   6 C     3667   6 C                                       1.3834502
  3667   6 C     3668   6 C                                       1.3842101
  3668   6 C     3669   6 C                                       1.3846853
  3665   6 C     3670   6 C                                       1.3900331
  3669   6 C     3670   6 C                                       1.3831398
  3664   6 C     3671   6 C                                       1.5352460
  3671   6 C     3672   6 C                                       1.5326116
  3673   6 C     3674   6 C                                       1.3897343
  3674   6 C     3675   6 C                                       1.3830396
  3675   6 C     3676   6 C                                       1.3840392
  3676   6 C     3677   6 C                                       1.3844303
  3673   6 C     3678   6 C                                       1.3896197
  3677   6 C     3678   6 C                                       1.3836331
  3679   6 C     3680   6 C                                       1.5372835
  3681   6 C     3682   6 C                                       1.3903258
  3682   6 C     3683   6 C                                       1.3841281
  3683   6 C     3684   6 C                                       1.3850367
  3684   6 C     3685   6 C                                       1.3848624
  3681   6 C     3686   6 C                                       1.3897529
  3685   6 C     3686   6 C                                       1.3835853
  3680   6 C     3687   6 C                                       1.5360892
  3687   6 C     3688   6 C                                       1.5302355
  3549   6 C     3689   1 H                                       1.0960939
  3551   6 C     3690   1 H                                       1.0918698
  3551   6 C     3691   1 H                                       1.0929465
  3552   6 C     3692   1 H                                       1.0949768
  3559   6 C     3693   1 H                                       1.0916136
  3559   6 C     3694   1 H                                       1.0926953
  3560   6 C     3695   1 H                                       1.0967482
  3567   6 C     3696   1 H                                       1.0931387
  3567   6 C     3697   1 H                                       1.0907287
  3568   6 C     3698   1 H                                       1.0936508
  3575   6 C     3699   1 H                                       1.0925069
  3576   6 C     3700   1 H                                       1.0945489
  3583   6 C     3701   1 H                                       1.0911531
  3583   6 C     3702   1 H                                       1.0926701
  3584   6 C     3703   1 H                                       1.0946276
  3591   6 C     3704   1 H                                       1.0919387
  3591   6 C     3705   1 H                                       1.0911100
  3592   6 C     3706   1 H                                       1.0943751
  3599   6 C     3707   1 H                                       1.0930458
  3599   6 C     3708   1 H                                       1.0928097
  3600   6 C     3709   1 H                                       1.0954642
  3608   6 C     3710   1 H                                       1.0953837
  3615   6 C     3711   1 H                                       1.0920452
  3615   6 C     3712   1 H                                       1.0906855
  3616   6 C     3713   1 H                                       1.0933489
  3623   6 C     3714   1 H                                       1.0908910
  3623   6 C     3715   1 H                                       1.0921424
  3624   6 C     3716   1 H                                       1.0959082
  3631   6 C     3717   1 H                                       1.0906250
  3631   6 C     3718   1 H                                       1.0905830
  3632   6 C     3719   1 H                                       1.0951772
  3639   6 C     3720   1 H                                       1.0923618
  3639   6 C     3721   1 H                                       1.0932591
  3640   6 C     3722   1 H                                       1.0940737
  3647   6 C     3723   1 H                                       1.0919878
  3647   6 C     3724   1 H                                       1.0926750
  3648   6 C     3725   1 H                                       1.0962199
  3655   6 C     3726   1 H                                       1.0909828
  3655   6 C     3727   1 H                                       1.0912883
  3656   6 C     3728   1 H                                       1.0951929
  3663   6 C     3729   1 H                                       1.0921567
  3663   6 C     3730   1 H                                       1.0915109
  3664   6 C     3731   1 H                                       1.0965696
  3671   6 C     3732   1 H                                       1.0934941
  3671   6 C     3733   1 H                                       1.0925286
  3672   6 C     3734   1 H                                       1.0953425
  3679   6 C     3735   1 H                                       1.0920001
  3679   6 C     3736   1 H                                       1.0920407
  3543   6 C     3737   1 H                                       1.0803450
  3548   6 C     3738   1 H                                       1.0803161
  3547   6 C     3739   1 H                                       1.0798369
  3546   6 C     3740   1 H                                       1.0796429
  3545   6 C     3741   1 H                                       1.0810984
  3554   6 C     3742   1 H                                       1.0816085
  3555   6 C     3743   1 H                                       1.0810819
  3556   6 C     3744   1 H                                       1.0797361
  3557   6 C     3745   1 H                                       1.0804782
  3558   6 C     3746   1 H                                       1.0802662
  3562   6 C     3747   1 H                                       1.0797344
  3563   6 C     3748   1 H                                       1.0811420
  3564   6 C     3749   1 H                                       1.0800134
  3565   6 C     3750   1 H                                       1.0807281
  3566   6 C     3751   1 H                                       1.0818456
  3570   6 C     3752   1 H                                       1.0794187
  3571   6 C     3753   1 H                                       1.0789157
  3572   6 C     3754   1 H                                       1.0802608
  3573   6 C     3755   1 H                                       1.0803638
  3574   6 C     3756   1 H                                       1.0813758
  3575   6 C     3757   1 H                                       1.0933931
  3578   6 C     3758   1 H                                       1.0798664
  3579   6 C     3759   1 H                                       1.0813665
  3580   6 C     3760   1 H                                       1.0803559
  3581   6 C     3761   1 H                                       1.0808928
  3582   6 C     3762   1 H                                       1.0801278
  3586   6 C     3763   1 H                                       1.0811031
  3587   6 C     3764   1 H                                       1.0808570
  3588   6 C     3765   1 H                                       1.0802482
  3589   6 C     3766   1 H                                       1.0810385
  3590   6 C     3767   1 H                                       1.0812590
  3594   6 C     3768   1 H                                       1.0801770
  3595   6 C     3769   1 H                                       1.0803198
  3596   6 C     3770   1 H                                       1.0795694
  3597   6 C     3771   1 H                                       1.0803991
  3598   6 C     3772   1 H                                       1.0807924
  3602   6 C     3773   1 H                                       1.0804845
  3603   6 C     3774   1 H                                       1.0799650
  3604   6 C     3775   1 H                                       1.0804863
  3605   6 C     3776   1 H                                       1.0805894
  3606   6 C     3777   1 H                                       1.0801621
  3607   6 C     3778   1 H                                       1.0904076
  3607   6 C     3779   1 H                                       1.0919832
  3610   6 C     3780   1 H                                       1.0813476
  3611   6 C     3781   1 H                                       1.0809332
  3612   6 C     3782   1 H                                       1.0806814
  3613   6 C     3783   1 H                                       1.0795411
  3614   6 C     3784   1 H                                       1.0790515
  3618   6 C     3785   1 H                                       1.0812198
  3619   6 C     3786   1 H                                       1.0790844
  3620   6 C     3787   1 H                                       1.0809760
  3621   6 C     3788   1 H                                       1.0804037
  3622   6 C     3789   1 H                                       1.0811073
  3626   6 C     3790   1 H                                       1.0801862
  3627   6 C     3791   1 H                                       1.0798302
  3628   6 C     3792   1 H                                       1.0807047
  3629   6 C     3793   1 H                                       1.0794995
  3630   6 C     3794   1 H                                       1.0778257
  3634   6 C     3795   1 H                                       1.0799100
  3635   6 C     3796   1 H                                       1.0795744
  3636   6 C     3797   1 H                                       1.0799176
  3637   6 C     3798   1 H                                       1.0813873
  3638   6 C     3799   1 H                                       1.0809317
  3642   6 C     3800   1 H                                       1.0794748
  3643   6 C     3801   1 H                                       1.0801466
  3644   6 C     3802   1 H                                       1.0811192
  3645   6 C     3803   1 H                                       1.0818324
  3646   6 C     3804   1 H                                       1.0805297
  3650   6 C     3805   1 H                                       1.0794591
  3651   6 C     3806   1 H                                       1.0801673
  3652   6 C     3807   1 H                                       1.0807104
  3653   6 C     3808   1 H                                       1.0815448
  3654   6 C     3809   1 H                                       1.0810585
  3658   6 C     3810   1 H                                       1.0807257
  3659   6 C     3811   1 H                                       1.0798746
  3660   6 C     3812   1 H                                       1.0799298
  3661   6 C     3813   1 H                                       1.0792246
  3662   6 C     3814   1 H                                       1.0804116
  3666   6 C     3815   1 H                                       1.0799826
  3667   6 C     3816   1 H                                       1.0810308
  3668   6 C     3817   1 H                                       1.0807219
  3669   6 C     3818   1 H                                       1.0796408
  3670   6 C     3819   1 H                                       1.0796339
  3674   6 C     3820   1 H                                       1.0804693
  3675   6 C     3821   1 H                                       1.0793510
  3676   6 C     3822   1 H                                       1.0804593
  3677   6 C     3823   1 H                                       1.0808829
  3678   6 C     3824   1 H                                       1.0813269
  3686   6 C     3825   1 H                                       1.0812826
  3685   6 C     3826   1 H                                       1.0808249
  3684   6 C     3827   1 H                                       1.0806098
  3683   6 C     3828   1 H                                       1.0805918
  3682   6 C     3829   1 H                                       1.0797573
  3550   6 C     3830   1 H                                       1.0884800
  3550   6 C     3831   1 H                                       1.0880091
  3550   6 C     3832   1 H                                       1.0886443
  3680   6 C     3833   1 H                                       1.0962484
  3687   6 C     3834   1 H                                       1.0910649
  3687   6 C     3835   1 H                                       1.0918965
  3688   6 C     3836   6 C                                       1.5386986
  3837   6 C     3838   6 C                                       1.3896497
  3838   6 C     3839   6 C                                       1.3828460
  3839   6 C     3840   6 C                                       1.3837821
  3840   6 C     3841   6 C                                       1.3840107
  3837   6 C     3842   6 C                                       1.3897169
  3841   6 C     3842   6 C                                       1.3832627
  3838   6 C     3843   1 H                                       1.0801749
  3839   6 C     3844   1 H                                       1.0798629
  3840   6 C     3845   1 H                                       1.0803594
  3841   6 C     3846   1 H                                       1.0810120
  3842   6 C     3847   1 H                                       1.0819398
  3836   6 C     3848   6 C                                       1.5352459
  3836   6 C     3849   1 H                                       1.0927467
  3836   6 C     3850   1 H                                       1.0921115
  3851   6 C     3852   6 C                                       1.3897580
  3852   6 C     3853   6 C                                       1.3828039
  3853   6 C     3854   6 C                                       1.3849670
  3854   6 C     3855   6 C                                       1.3836435
  3851   6 C     3856   6 C                                       1.3889323
  3855   6 C     3856   6 C                                       1.3840217
  3852   6 C     3857   1 H                                       1.0811174
  3853   6 C     3858   1 H                                       1.0805085
  3854   6 C     3859   1 H                                       1.0802802
  3855   6 C     3860   1 H                                       1.0800968
  3856   6 C     3861   1 H                                       1.0808335
  3688   6 C     3862   1 H                                       1.0952468
  3848   6 C     3863   1 H                                       1.0925763
  3848   6 C     3864   1 H                                       1.0910285

 * 2 distinct bonds (by element types)

   Z      Z             #   av. dist./Å        max./Å        min./Å
   1 H    6 C        1944     1.0851119     1.0984091     1.0777302
   6 C    6 C        1860     1.4195456     1.5410678     1.3803232


optimized geometry written to: xtbopt.xyz


           -------------------------------------------------
          | TOTAL ENERGY            -5104.070518729964 Eh   |
          | GRADIENT NORM               0.000774650925 Eh/α |
          | HOMO-LUMO GAP               4.088237042201 eV   |
           -------------------------------------------------

------------------------------------------------------------------------
 * finished run on 2024/10/09 at 03:29:44.053     
------------------------------------------------------------------------
 total:
 * wall-time:     4 d,  7 h, 59 min, 26.732 sec
 *  cpu-time:    26 d, 13 h, 56 min, 20.332 sec
 * ratio c/w:     6.135 speedup
 SCF:
 * wall-time:     0 d,  0 h, 48 min, 35.340 sec
 *  cpu-time:     0 d,  5 h, 46 min, 17.652 sec
 * ratio c/w:     7.127 speedup
 ANC optimizer:
 * wall-time:     4 d,  7 h,  9 min, 40.588 sec
 *  cpu-time:    26 d,  8 h,  8 min, 30.244 sec
 * ratio c/w:     6.128 speedup

