3795
 energy: -5103.028997466572 gnorm: 0.000887236001 xtb: 6.6.1 (8d0f1dd)
C          111.05719615419530      119.87492880781717      112.15855565499628
C          111.29611783678857      120.32253785138873      113.58097567297378
C          111.00273551808877      121.03082532917549      111.16432897966419
C          110.82645152509714      120.52618271015240      109.73491132064598
H          110.15996537901782      121.66990882237555      111.42659251896526
H          111.91357728435706      121.62760165400000      111.23952120670880
C          110.75888937628325      121.66565585740928      108.71746537628759
H          111.65335865703867      119.85953882534680      109.48012535565886
H          109.89553118355079      119.95979637897032      109.66892879683698
C          109.40826505756159      122.36023838938345      108.73858032969714
H          111.55482494244774      122.39033206848755      108.88698448872846
H          110.86624139398712      121.25206253898757      107.71057909928135
N          109.46141872910758      123.68502623421779      108.54455430032303
O          111.17648153788538      119.33616197621477      114.44504450732661
O          111.61608806457502      121.44795249737882      113.89650664899024
H          111.32124396833092      119.63129661395588      115.38673030165658
H          110.11401786638400      119.32930501748855      112.14936295452668
H          111.85241256394903      119.17058863775104      111.89734145792400
C          108.29659509318654      124.54402444397536      108.54099598178455
H          110.36840513950980      124.14584871141842      108.56672990262594
C          108.29919765062002      125.45820984537825      109.76796150006155
H          108.30272437802718      125.14343071020559      107.62474640110884
H          107.41062659569187      123.90500767645767      108.54039963648083
C          107.23288219025024      126.55162100285155      109.73508015062971
H          108.15723015894439      124.84107969380096      110.65672750581987
H          109.28608904783472      125.92340176954792      109.83748189646845
C          107.50508581445675      127.61040532961327      108.66023482059774
H          106.25066045325624      126.10269889108220      109.57829012865506
H          107.21235124127104      127.03592858089017      110.71253212434763
C          106.92079256771567      128.98512179741957      109.01932679524195
H          108.58386475970390      127.70734046911869      108.52456659920148
H          107.09146315615732      127.27389450897715      107.70872540831033
C          107.94895572358301      129.93466115795343      109.64469862931669
H          106.54601612891884      129.48216980271008      108.12252095258687
H          106.07728554699638      128.85795753555999      109.69969120966068
N          108.59209027674882      129.38515811499354      110.81231121768853
H          108.70762754742130      130.19241431073533      108.89647933266522
H          107.45837181481090      130.85687642674122      109.96633500634898
C          108.53389000107109      129.96555361784959      112.02281642305093
H          109.16369187180877      128.56424129810031      110.69316842207949
O          108.35753901053164      121.74244934444390      108.85284000174612
C          109.21443572494729      129.17622597211343      113.12147184647655
C          108.46865380183715      127.86631507211908      113.40021613793058
H          110.23995861158912      128.96634599064046      112.81130155167423
H          109.22134340584705      129.78900481194867      114.02424505553108
C          106.98719757742478      128.12780780919653      113.66263576247832
H          108.57516988855352      127.18821790410917      112.55010357267557
H          108.91674392571487      127.37834425691915      114.26784593789816
C          106.19365520149010      126.84822007295136      113.90464892900121
H          106.88917498935871      128.81286209763965      114.50387392324697
H          106.55614396348619      128.62574788345660      112.79112462389070
C          106.57663326771673      126.03192805111243      115.12552932279813
H          105.13629814634560      127.10151669120118      114.02464623809489
H          106.26616842657980      126.18590117693122      113.03789837414757
N          106.91120097640244      126.70594906755883      116.22420561749156
C          107.14705987383286      126.04188171887510      117.48431272243334
H          107.02129802478780      127.71568332582599      116.22246203076425
O          107.95801637742269      131.02594633468513      112.21401887692741
C          106.39892832300148      126.72676646600320      118.62694557335925
H          106.78901078579800      125.01655639027916      117.36857699786472
H          108.22241509560158      126.00651564862605      117.68694512872553
C          104.90697051610609      126.86134416110184      118.31805172662894
H          106.54381717097239      126.12376783205494      119.52329230462649
H          106.81901540950967      127.71809362879615      118.80568943716835
C          104.04467925027653      127.19090383023520      119.53852171694507
H          104.77025883389152      127.65499098839076      117.58130654596528
H          104.55315511339404      125.93862694903304      117.85625905307572
C          104.11487159273022      126.17357301931474      120.68001265139058
H          104.34727604210430      128.16395404991400      119.93125892351436
H          103.00708982559547      127.28085739762231      119.20784343801344
C          103.74799064726862      124.75390584460044      120.25590854354499
N          103.91743816658112      123.84551208183051      121.36655030105302
H          102.70544752977661      124.69494653732417      119.93140537735079
H          104.40216981900346      124.43583501968179      119.43683925868703
C          103.06792861395080      122.85845536978209      121.65523857466845
H          104.81344509844446      123.92052442076456      121.83972301642785
O          106.50897609707340      124.80435930630101      115.09361649502596
C          103.44952095333936      122.01687907394738      122.85947083262992
C          104.77551783841025      121.27560708827360      122.66277584958993
H          103.52854420793959      122.67365136211592      123.72907751668309
H          102.64423230113709      121.30429660171744      123.03680312408966
C          105.23030362579333      120.52643916665139      123.91777026898558
H          104.67420818432214      120.56961811961595      121.83406655101420
H          105.55351924523134      121.99462734060077      122.39953122738545
C          104.36820208944937      119.29986925523571      124.23595840062326
H          106.26429702074280      120.20325299663159      123.77405280875824
H          105.20276691201414      121.20321632039921      124.77382027037974
C          104.91532425441540      118.60015061300751      125.46754363754465
H          103.34538695527618      119.61346520112717      124.44738316269111
H          104.36792726239096      118.61526012434743      123.38680315982812
N          105.73737181907087      117.57634457533730      125.21251107511473
C          106.36646442963534      116.80656941518855      126.26328554771507
H          105.92193637459361      117.28338504725185      124.25974426897304
H          105.12023515272671      126.14775009468734      121.10241878720268
H          103.43529397699922      126.49188566014055      121.47339355909732
O          102.04194212221320      122.65233346484769      121.00669849776385
O          104.63877581273474      118.96328128792275      126.60568898568047
C          107.74145574880679      116.30822473813683      125.84702096379138
H          106.43889947486667      117.45380077979986      127.14212819516462
H          105.73923119917521      115.94303141248513      126.51666839515225
C          108.73158702807075      117.44928396545916      125.63773604855567
H          108.10792602111796      115.63919138422203      126.62655413261085
H          107.62748288051719      115.72918461181649      124.93104016466620
C          110.16753379042417      116.96115975837237      125.44453066812834
H          108.42683275203700      118.05380711779192      124.78390148629582
H          108.71098041613156      118.10053213735188      126.51588576124419
C          110.34752458452829      115.92880232494740      124.33377648626971
H          110.80349559805572      117.82454253537080      125.23649122018736
H          110.51259338574800      116.51150999591287      126.37888781429923
C          109.96015678648021      116.44544197818379      122.93597724947797
H          111.38727177899932      115.60348940850326      124.32771989269295
H          109.74508784814982      115.04986523242607      124.56047456341783
N          108.98219707364832      115.59828654637614      122.28628553471721
H          109.54660176603643      117.44955731812409      123.00269346401167
H          110.84465145830691      116.46556407536596      122.29422049130480
C          109.33344594819934      114.41950575571751      121.75474922482687
H          108.00557294304585      115.86348588454138      122.35006083961432
C          108.19039213462557      113.59793855597171      121.19766877721192
C          107.22824628016461      113.15712513909764      122.30440616757895
H          107.64914052388519      114.19845509760151      120.46384629773304
H          108.61825582271501      112.72908847880804      120.69485549104334
C          107.94389272825524      112.37496484850514      123.40312166307830
H          106.74970840030807      114.03748432570409      122.73754237497515
H          106.44749936225615      112.53435215744125      121.86598783560764
C          106.96902328464942      111.71260510876436      124.38351489856601
H          108.55957808818877      111.59617916787080      122.94828545519778
H          108.61519515204265      113.03853354562973      123.95154641010544
C          106.09693388720207      112.72489311437066      125.10096436151828
H          106.33042810073562      111.01846773657505      123.83824606398009
H          107.54077434842436      111.16357369153603      125.13353140218977
N          104.93766901600894      112.98488415420034      124.48821538624429
C          103.93554248054828      113.87004239247288      125.03433204056194
H          104.72117446095625      112.52179923050949      123.60915371914777
O          110.49807072002507      114.04043272315226      121.70925589053930
C          103.45767255690761      114.90551072899673      124.01872398771403
H          103.09072628997477      113.27132674198909      125.39057958453157
H          104.38722743293881      114.36975865471190      125.89317130694539
C          102.50507515510196      115.92734744224249      124.64303060782869
H          104.32953404011928      115.42535559408230      123.61735671230031
H          102.95674282631842      114.39424969577360      123.19388386430792
C          101.22201993550144      115.29046959280048      125.17575610789666
H          103.02337416614047      116.44599927847344      125.45020510924400
H          102.24251391751339      116.67233903637265      123.88637507616144
C          100.16981029222931      116.30301222381526      125.63291323326118
H          100.78401847684088      114.67671015318795      124.38462429699538
H          101.45723007086177      114.63537379140794      126.01283789028020
C          100.63590785521512      117.23291013682703      126.74510077323635
H           99.86808563143920      116.93145734854812      124.79116445565639
H           99.28974907012513      115.75621241289743      125.97828964886619
N          100.97578692785561      116.53467994805810      127.96692923099093
H          101.50475167926287      117.81230855629543      126.41256614001060
H           99.83786980286085      117.94666787394637      126.97683641489552
O          106.43167939314080      113.26169303540300      126.15358133980482
C          101.07831992916779      117.18888498784237      129.12929338145619
H          101.09792040815748      115.52793560168513      127.94479121522868
C          101.56296997572085      116.32991247250170      130.28290005594266
C          103.08780104473101      116.18359763821695      130.21191736108383
H          101.27912748055728      116.80519756431524      131.22235897163446
H          101.10075779488007      115.34441305348402      130.22084291970779
C          103.79674149770392      117.52489041384638      130.37893926707926
H          103.41764588512459      115.49452925728980      130.99229768429393
H          103.35399807179986      115.75312301757802      129.24486215704059
C          105.30856171242351      117.40652624504453      130.15743743069061
H          103.38414571682293      118.23848246031675      129.66390898591663
H          103.60958872084575      117.90746035639398      131.38406546798436
C          105.94965055682029      118.76655216342097      130.33003732499117
H          105.73795041465954      116.71533139967902      130.88370999343499
H          105.50080029590116      117.03119562113315      129.15208362007724
N          105.78155945024858      119.60882980080513      129.31145567495335
O          100.85050579361132      118.38759759081472      129.24124813073291
C          106.16684863608918      121.00670963760012      129.39187617105662
H          105.27774197408769      119.32436868943290      128.47580558608260
C          105.80972103923582      121.73539970456397      128.10588138811087
H          105.65588879063809      121.47486937620594      130.24005746657090
H          107.24204275425940      121.07598262479429      129.59001520627280
C          105.84127688594823      123.24857889074877      128.30047796151027
H          106.50269882905627      121.43029425804048      127.32105441635730
H          104.80335716023767      121.44907529524980      127.79885978564444
C          105.57431279135302      124.01116326187349      127.00415535794676
H          105.06317831485049      123.51493332679891      129.01601276136944
H          106.80248413974959      123.55047378849710      128.72091696770059
C          106.71400424135278      123.86221558387946      126.00143211115811
H          104.63396888837745      123.65560451339140      126.58295857823944
H          105.44909177695070      125.07020579595695      127.24090666270517
C          106.55493541045253      124.75421643204386      124.77514503609405
H          107.65274212002397      124.13066445609782      126.49177454665386
H          106.79918099915194      122.82849813857720      125.66596569656879
N          107.73582496017625      124.65394516572570      123.94438871880543
H          105.69001073802207      124.45612159142426      124.17869130060502
H          106.41434851565151      125.79701620259240      125.08648652442628
C          107.72368402391277      124.31273282507861      122.65358001036137
H          108.62445191256464      124.65183644518370      124.44353034099417
O          106.55772217091435      119.08221395955886      131.35491594110007
C          109.09668059203564      124.15771803435298      122.02705807353573
C          109.39711878558580      125.33477549020533      121.09429437412876
H          109.85948095387141      124.07585894187650      122.80015010292091
H          109.09094085474369      123.23876663815221      121.44072727815285
C          109.63315267823144      126.63712093202426      121.86468911572747
H          110.28145415521961      125.09925662134133      120.50020516333468
H          108.55837336906862      125.45849928489328      120.40716385507810
C          109.72028195059767      127.81749066816839      120.89942594702096
H          108.80721455056627      126.78896755984398      122.56421653091422
H          110.55809308512541      126.52969833433094      122.43783343648562
C          110.11706747173102      129.17379877649654      121.45658675674908
H          110.43095908900874      127.58278495560577      120.10211000904361
H          108.75170442579105      127.95116684999670      120.40928067360559
N          110.36126204576938      129.24864870454093      122.76783122434958
C          110.72038891850313      130.46708387378982      123.45994599246210
H          110.28882047026602      128.42142589975651      123.33634503495192
O          106.69283538681911      124.18070206774152      121.99918778201948
C          109.55100019178549      131.04731289478357      124.26588731787695
H          111.57312425086452      130.25213544057544      124.10799073211307
H          111.02671354626555      131.19418133793985      122.70511255956247
C          108.90754782802533      130.04400399376073      125.22485768603275
H          109.91756139936146      131.90992225317854      124.82428635211883
H          108.78777766179061      131.39861189509767      123.56804241416694
C          109.85502330071718      129.57957770136733      126.33155620586307
H          108.02859065975565      130.50816380819941      125.67694453958039
H          108.55192167035561      129.18997459930060      124.64691502641179
C          109.37191229719035      128.31555615899353      127.04730986995595
H          110.84630955393044      129.39533430342283      125.92079450124957
H          109.95221570054072      130.38128098103815      127.06667770291368
C          109.41691345069576      127.06330627155221      126.17685875872345
H          109.99506673361039      128.14576425538320      127.92778378660618
H          108.34483636867110      128.45743597295575      127.38864347444132
N          110.77377875942426      126.70966031750731      125.81053128245709
H          108.98489413824061      126.21803157480373      126.72288390872326
H          108.81199075464455      127.20234302017036      125.27245604692703
C          111.10721892254313      125.47326883975235      125.42086020415391
H          111.49342459973313      127.42169170236413      125.88199434874134
O          110.21408286246294      130.14744599909113      120.71254160747547
C          112.59246809035542      125.26382501531668      125.21928118709286
C          112.92294223683285      123.97735946651777      124.46595622752311
H          113.00977943489417      126.14032745672661      124.72111314108233
H          113.03832919671143      125.22230701282565      126.21522495457953
C          114.38018502491948      123.55348141022490      124.65375745322306
H          112.26148258474826      123.18967293390799      124.82663844750454
H          112.72529835003394      124.10141318754103      123.39980700734174
C          114.63410893725133      122.95949595546064      126.04309339144011
H          114.63266044601744      122.81141249253949      123.89502338062820
H          115.03181729728549      124.41773671845029      124.50727675872430
C          116.08386598328742      122.55280467907191      126.21644926405007
H          114.37068561046036      123.68221306627910      126.81454231751357
H          114.02250446978802      122.06272594537535      126.16694362597700
N          116.82952903919794      123.38784648328067      126.93954883804570
O          110.27153407131745      124.58776254981483      125.26625788462856
C          118.19015553774067      123.07587607840931      127.31901948596621
H          116.43357687265856      124.27049856479114      127.25986482235868
C          119.22896774699215      124.01440674289113      126.70920884334582
H          118.26570322725271      123.11423197624720      128.41072625837836
H          118.37895134226304      122.05168052257306      126.99287735166098
C          120.63965811929573      123.55448050643540      127.07504110452956
H          119.11476536109453      124.01465392916832      125.62362479867558
H          119.06069964147873      125.03114130438085      127.07209904907297
C          121.72458401908669      124.51801099039562      126.59878389544622
H          120.71254244890652      123.44130302718871      128.15934214736643
H          120.81743060151705      122.57510379150732      126.63049353554493
C          123.11437912160433      123.88831116874157      126.70149082042150
H          121.53637668622157      124.79274282976569      125.55979660818261
H          121.69291634537248      125.43392894337809      127.19277200376213
C          124.22998481040194      124.92692411339955      126.59798065187580
H          123.21665216216797      123.37709559155593      127.66071472960293
H          123.24378477345438      123.14744415696893      125.91101953097146
N          124.10601722533214      125.74731306294696      125.41656836285668
H          124.20210989715824      125.61022127031622      127.45148160054775
H          125.19886070084324      124.41348263525863      126.59069393387688
C          124.08303154677709      127.08907737267150      125.48373001420146
H          123.96011526414075      125.26848547737436      124.53578044193812
O          116.52434834867482      121.50918627505919      125.73449080418722
C          123.95890904281856      127.77861183821112      124.13358175941637
C          125.29696855060183      127.73871900417139      123.39022300598815
H          123.18985493141651      127.28066650503820      123.54628333530390
H          123.66892619892015      128.81519621705647      124.31189269217489
C          125.32816583546266      128.66175924414182      122.17146714459808
H          126.08748788942532      128.04797300452867      124.07739450365411
H          125.50501482183461      126.71394100973922      123.07652234268721
C          124.32470024905990      128.24208948865396      121.09191843553489
H          125.11242130297086      129.68573036803699      122.48481881122990
H          126.33255752114836      128.64306636071302      121.74360929964971
C          124.42452589894853      129.18535057923629      119.91004383230357
H          124.55226288345374      127.22433852137729      120.77666157426407
H          123.31472069502553      128.29175269713971      121.49659889269763
N          125.49066050095857      128.96735403650541      119.13425944935223
C          125.91831153848744      129.87100887255156      118.09405745950541
H          126.07580804031457      128.15495767832098      119.31763668512271
O          124.17923580926856      127.71094739498501      126.52769102025107
C          126.34143989791254      129.14374632923247      116.81781885740165
H          125.08804959779513      130.55477587798924      117.89856533793947
H          126.76853099803972      130.46154579054246      118.46127261630751
C          126.94222503934745      130.13873646696564      115.82624000589178
H          127.07675974356211      128.38064818949945      117.07707012923606
H          125.47684616770454      128.64922041973463      116.36982787355646
C          127.34242221599804      129.53387914993735      114.48045035870193
H          126.21023720479309      130.93014272515427      115.64362292845831
H          127.81869346008027      130.60729629185491      116.27881221375414
C          128.58047017795653      128.63605274269943      114.54706910656031
H          126.50311327837068      128.96834439652224      114.06859195257746
H          127.55315169772116      130.35833325189631      113.79317404493722
C          129.12695131037776      128.39532607042392      113.14174883418242
H          129.35270410939941      129.10634335923086      115.15726940665168
H          128.33168688207402      127.68124104458913      115.00645946666410
N          130.14909790528247      127.37164537796845      113.12762385908408
H          128.29785660856479      128.09432616234315      112.48994274071114
H          129.53152493711900      129.34040867514335      112.75268762030215
C          130.72665067070793      126.81859479759623      112.04408278618952
H          130.49212967776165      127.04547643774069      114.02947932591302
O          123.60582967793542      130.07847730818114      119.70587202403749
C          130.27833195166912      127.32687016869382      110.67907282715295
C          129.17052330921425      126.42858617680547      110.11859277855626
H          129.94647935293787      128.36118495613749      110.74435622132735
H          131.14231013987106      127.27503788090726      110.01477176821575
C          128.64077576697650      126.89114419614671      108.76078505966598
H          129.57493194185005      125.41940225882297      110.01902124129819
H          128.33966135901215      126.38242848163608      110.82760796932358
C          127.86763620510159      128.20707877652640      108.84178979632803
H          129.46663615027117      126.99782674840917      108.05631282713914
H          127.97180874276603      126.12389880618927      108.36426177009612
C          127.07913801305972      128.49381888330632      107.57692399339845
H          127.15684682317227      128.16064623044076      109.67233145954951
H          128.54459518748470      129.04280003072293      109.02593268457997
N          126.35776421185155      129.62168938348645      107.56735552322635
O          131.55512222354633      125.93138472307015      112.14799140521349
C          126.34076061639472      130.62189224272120      108.61202980936352
H          125.81050960421507      129.81472070965629      106.73233536210546
C          125.21712536521615      131.62847523786471      108.38982166648563
H          126.20093062464964      130.12565913260880      109.57695740873784
H          127.30381496443181      131.14977064988477      108.64122361965039
C          125.13108645750745      132.66580744138696      109.51181825124858
H          125.38024039456138      132.13165710473419      107.43523638157072
H          124.27049683501649      131.09313248743933      108.32598880413269
C          124.60056765328173      132.07330157219968      110.81648759158584
H          126.11960779070201      133.09859601107522      109.68352080764259
H          124.47088640146553      133.47269048118125      109.18961897205273
C          124.60699075060961      133.05979406292326      111.98433631300574
H          123.58493173000696      131.70432446820021      110.66083510075279
H          125.21373168906109      131.21701010497247      111.10381548725638
C          123.55779015234830      134.18250834660606      111.88973616303126
H          124.42359081692645      132.49693825487952      112.90199298806745
H          125.59448598286593      133.51803054999061      112.07301500127328
N          122.18856728869687      133.76259632710264      111.64102317913823
H          123.56715067955960      134.72490182771989      112.84420297902948
H          123.84111335476409      134.89570796885161      111.11241739989325
H          122.03205021194111      133.62463856072807      110.64989531262302
H          121.99394216659634      132.86787281228689      112.08421043619869
O          127.07284755332608      127.72455993971138      106.62153882767073
C          115.99033123343382      131.01171746949063      107.99922309793008
C          115.55586442214103      129.71962907712916      107.35614408009154
C          114.83184033613607      131.61100001044630      108.80685829994516
C          114.41320983296141      130.67898905845584      109.93997530097461
H          115.14871306642442      132.57144421204302      109.21384929614189
H          113.98611595430167      131.78624558185382      108.13816805212814
C          113.21826438968239      131.20668786540153      110.74239228903924
H          114.15259023386439      129.70132639402982      109.52632526377552
H          115.25475887317886      130.53108822800084      110.61950850363695
C          112.81631251174018      130.11008041361976      111.70182196179171
H          113.48998856400297      132.11174461054728      111.28365014833597
H          112.38454777112821      131.41878781797740      110.07128173826730
N          113.36995622119846      130.17676890449414      112.91262952237152
O          114.74621469483756      129.89317578693411      106.33489814490221
O          115.89926521010460      128.62292623690084      107.74449846022010
H          114.44046620791843      129.01050389568542      105.94750295832142
H          116.29370113111925      131.71887364286414      107.22802661622285
H          116.84447310477148      130.81648305432762      108.64580867743761
C          113.14822235486413      129.12396853117639      113.88634033048761
H          113.78135528195394      131.05501875778680      113.23439756670273
C          113.88037721499519      129.40677936177013      115.18799372335678
H          112.07308828383323      129.02615015288904      114.06862230128472
H          113.49921875349446      128.17765649705365      113.45840097352865
C          113.74253411112637      128.26041570536199      116.19248107544054
H          114.93993069855838      129.55464035458149      114.97109248339461
H          113.50161894035136      130.33402514372486      115.61898494854354
C          112.30385588356997      127.85241470139266      116.51303448611212
H          114.26082333871088      127.38567828350051      115.79478772226713
H          114.24972118658764      128.55283649247809      117.11532717658071
C          111.44944974262123      128.96093913396766      117.12224039773588
H          111.81344788966601      127.48772763142699      115.61195376120283
H          112.32521456645168      127.00869076231410      117.20466269506704
C          110.00199942588455      128.49439904895951      117.26996553323065
H          111.84047124191613      129.23419644870793      118.10638194882495
H          111.47282519200841      129.85106255811883      116.49243948120375
N          109.22677203976941      129.44835421831522      118.02981695749386
H          109.53277192983393      128.39031776074654      116.29078601611700
H          109.98446267185663      127.50969255322607      117.74747751100308