      -----------------------------------------------------------      
     |                   =====================                   |     
     |                           x T B                           |     
     |                   =====================                   |     
     |                         S. Grimme                         |     
     |          Mulliken Center for Theoretical Chemistry        |     
     |                    University of Bonn                     |     
      -----------------------------------------------------------      

   * xtb version 6.6.1 (8d0f1dd) compiled by 'stahn@M-Bot' on 2023-08-01

   xtb is free software: you can redistribute it and/or modify it under
   the terms of the GNU Lesser General Public License as published by
   the Free Software Foundation, either version 3 of the License, or
   (at your option) any later version.
   
   xtb is distributed in the hope that it will be useful,
   but WITHOUT ANY WARRANTY; without even the implied warranty of
   MERCHANTABILITY or FITNESS FOR A PARTICULAR PURPOSE.  See the
   GNU Lesser General Public License for more details.
   
   Cite this work as:
   * C. Bannwarth, E. Caldeweyher, S. Ehlert, A. Hansen, P. Pracht,
     J. Seibert, S. Spicher, S. Grimme, WIREs Comput. Mol. Sci., 2020, 11,
     e01493. DOI: 10.1002/wcms.1493
   
   for GFN2-xTB:
   * C. Bannwarth, S. Ehlert and S. Grimme., J. Chem. Theory Comput., 2019,
     15, 1652-1671. DOI: 10.1021/acs.jctc.8b01176
   for GFN1-xTB:
   * S. Grimme, C. Bannwarth, P. Shushkov, J. Chem. Theory Comput., 2017,
     13, 1989-2009. DOI: 10.1021/acs.jctc.7b00118
   for GFN0-xTB:
   * P. Pracht, E. Caldeweyher, S. Ehlert, S. Grimme, ChemRxiv, 2019, preprint.
     DOI: 10.26434/chemrxiv.8326202.v1
   for GFN-FF:
   * S. Spicher and S. Grimme, Angew. Chem. Int. Ed., 2020, 59, 15665-15673.
     DOI: 10.1002/anie.202004239
   
   for ALPB and GBSA implicit solvation:
   * S. Ehlert, M. Stahn, S. Spicher, S. Grimme, J. Chem. Theory Comput.,
     2021, 17, 4250-4261. DOI: 10.1021/acs.jctc.1c00471
   
   for DFT-D4:
   * E. Caldeweyher, C. Bannwarth and S. Grimme, J. Chem. Phys., 2017,
     147, 034112. DOI: 10.1063/1.4993215
   * E. Caldeweyher, S. Ehlert, A. Hansen, H. Neugebauer, S. Spicher,
     C. Bannwarth and S. Grimme, J. Chem. Phys., 2019, 150, 154122.
     DOI: 10.1063/1.5090222
   * E. Caldeweyher, J.-M. Mewes, S. Ehlert and S. Grimme, Phys. Chem. Chem. Phys.
     2020, 22, 8499-8512. DOI: 10.1039/D0CP00502A
   
   for sTDA-xTB:
   * S. Grimme and C. Bannwarth, J. Chem. Phys., 2016, 145, 054103.
     DOI: 10.1063/1.4959605
   
   in the mass-spec context:
   * V. Asgeirsson, C. Bauer and S. Grimme, Chem. Sci., 2017, 8, 4879.
     DOI: 10.1039/c7sc00601b
   * J. Koopman and S. Grimme, ACS Omega 2019, 4, 12, 15120-15133.
     DOI: 10.1021/acsomega.9b02011
   
   for metadynamics refer to:
   * S. Grimme, J. Chem. Theory Comput., 2019, 155, 2847-2862
     DOI: 10.1021/acs.jctc.9b00143
   
   for SPH calculations refer to:
   * S. Spicher and S. Grimme, J. Chem. Theory Comput., 2021, 17, 1701-1714
     DOI: 10.1021/acs.jctc.0c01306
   
   with help from (in alphabetical order)
   P. Atkinson, C. Bannwarth, F. Bohle, G. Brandenburg, E. Caldeweyher
   M. Checinski, S. Dohm, S. Ehlert, S. Ehrlich, I. Gerasimov, C. Hölzer
   A. Katbashev, J. Koopman, C. Lavigne, S. Lehtola, F. März, M. Müller,
   F. Musil, H. Neugebauer, J. Pisarek, C. Plett, P. Pracht, F. Pultar,
   J. Seibert, P. Shushkov, S. Spicher, M. Stahn, M. Steiner, T. Strunk,
   J. Stückrath, T. Rose, and J. Unsleber
   
 * started run on 2024/10/04 at 14:12:38.361     

           -------------------------------------------------
          |                Calculation Setup                |
           -------------------------------------------------

          program call               : /home/abt-grimme/AK-bin/xtb input.xyz --input input.inp --opt
          hostname                   : boar002.thch.uni-bonn.de
          coordinate file            : input.xyz
          omp threads                :                     8

   ID    Z sym.   atoms
    1    6 C      1-90, 273-362, 545-634, 817-906, 1089-1178, 1361-1450,
                  1633-1722, 1905-1994, 2177-2266, 2449-2538, 2721-2810,
                  2993-3082, 3265-3354
    2    1 H      91-272, 363-544, 635-816, 907-1088, 1179-1360, 1451-1632,
                  1723-1904, 1995-2176, 2267-2448, 2539-2720, 2811-2992,
                  3083-3264, 3355-3536

molecular fragmentation (1/2 indicates fragments):
111111111111111111111111111111111111111111111111111111111111111111111111
111111111111111111111111111111111111111111111111111111111111111111111111
111111111111111111111111111111111111111111111111111111111111111111111111
111111111111111111111111111111111111111111111111111111112222222222222222
222222222222222222222222222222222222222222222222222222222222222222222222
222222222222222222222222222222222222222222222222222222222222222222222222
222222222222222222222222222222222222222222222222222222222222222222222222
222222222222222222222222222222222222222222222222222222222222222222222222
222222222222222222222222222222222222222222222222222222222222222222222222
222222222222222222222222222222222222222222222222222222222222222222222222
222222222222222222222222222222222222222222222222222222222222222222222222
222222222222222222222222222222222222222222222222222222222222222222222222
222222222222222222222222222222222222222222222222222222222222222222222222
222222222222222222222222222222222222222222222222222222222222222222222222
222222222222222222222222222222222222222222222222222222222222222222222222
222222222222222222222222222222222222222222222222222222222222222222222222
222222222222222222222222222222222222222222222222222222222222222222222222
222222222222222222222222222222222222222222222222222222222222222222222222
222222222222222222222222222222222222222222222222222222222222222222222222
222222222222222222222222222222222222222222222222222222222222222222222222
222222222222222222222222222222222222222222222222222222222222222222222222
222222222222222222222222222222222222222222222222222222222222222222222222
222222222222222222222222222222222222222222222222222222222222222222222222
222222222222222222222222222222222222222222222222222222222222222222222222
222222222222222222222222222222222222222222222222222222222222222222222222
222222222222222222222222222222222222222222222222222222222222222222222222
222222222222222222222222222222222222222222222222222222222222222222222222
222222222222222222222222222222222222222222222222222222222222222222222222
222222222222222222222222222222222222222222222222222222222222222222222222
222222222222222222222222222222222222222222222222222222222222222222222222
222222222222222222222222222222222222222222222222222222222222222222222222
222222222222222222222222222222222222222222222222222222222222222222222222
222222222222222222222222222222222222222222222222222222222222222222222222
222222222222222222222222222222222222222222222222222222222222222222222222
222222222222222222222222222222222222222222222222222222222222222222222222
222222222222222222222222222222222222222222222222222222222222222222222222
222222222222222222222222222222222222222222222222222222222222222222222222
222222222222222222222222222222222222222222222222222222222222222222222222
222222222222222222222222222222222222222222222222222222222222222222222222
222222222222222222222222222222222222222222222222222222222222222222222222
222222222222222222222222222222222222222222222222222222222222222222222222
222222222222222222222222222222222222222222222222222222222222222222222222
222222222222222222222222222222222222222222222222222222222222222222222222
222222222222222222222222222222222222222222222222222222222222222222222222
222222222222222222222222222222222222222222222222222222222222222222222222
222222222222222222222222222222222222222222222222222222222222222222222222
222222222222222222222222222222222222222222222222222222222222222222222222
222222222222222222222222222222222222222222222222222222222222222222222222
222222222222222222222222222222222222222222222222222222222222222222222222
22222222
# atoms in fragment 1/2:   272  3264
 fragment masses (1/2) :     1264.41    15172.94
CMA distance (Bohr)    :  29.899
constraining FC (au)   :  0.0500

           -------------------------------------------------
          |                 G F N 2 - x T B                 |
           -------------------------------------------------

        Reference                      10.1021/acs.jctc.8b01176
      * Hamiltonian:
        H0-scaling (s, p, d)           1.850000    2.230000    2.230000
        zeta-weighting                 0.500000
      * Dispersion:
        s8                             2.700000
        a1                             0.520000
        a2                             5.000000
        s9                             5.000000
      * Repulsion:
        kExp                           1.500000    1.000000
        rExp                           1.000000
      * Coulomb:
        alpha                          2.000000
        third order                    shell-resolved
        anisotropic                    true
        a3                             3.000000
        a5                             4.000000
        cn-shift                       1.200000
        cn-exp                         4.000000
        max-rad                        5.000000


          ...................................................
          :                      SETUP                      :
          :.................................................:
          :  # basis functions                7046          :
          :  # atomic orbitals                7046          :
          :  # shells                         4706          :
          :  # electrons                      7046          :
          :  max. iterations                   250          :
          :  Hamiltonian                  GFN2-xTB          :
          :  restarted?                      false          :
          :  GBSA solvation                  false          :
          :  PC potential                    false          :
          :  electronic temp.          300.0000000     K    :
          :  accuracy                    1.0000000          :
          :  -> integral cutoff          0.2500000E+02      :
          :  -> integral neglect         0.1000000E-07      :
          :  -> SCF convergence          0.1000000E-05 Eh   :
          :  -> wf. convergence          0.1000000E-03 e    :
          :  Broyden damping             0.4000000          :
          ...................................................

 iter      E             dE          RMSdq      gap      omega  full diag
   1  -3766.7333751 -0.376673E+04  0.227E+00   11.53       0.0  T
   2  -3771.7875417 -0.505417E+01  0.126E+00   11.54       1.0  T
   3  -3771.9998575 -0.212316E+00  0.560E-01   11.54       1.0  T
   4  -3772.0218035 -0.219460E-01  0.142E-01   11.52       1.0  T
   5  -3772.0414084 -0.196049E-01  0.513E-02   11.51       1.0  T
   6  -3772.0414301 -0.217068E-04  0.738E-03   11.52       1.0  T
   7  -3772.0414622 -0.321390E-04  0.152E-03   11.52       1.1  T
   8  -3772.0414641 -0.188233E-05  0.552E-04   11.52       3.0  T
   9  -3772.0414642 -0.987970E-07  0.184E-04   11.52       9.1  T
  10  -3772.0414642 -0.152168E-07  0.705E-05   11.52      23.9  T

   *** convergence criteria satisfied after 10 iterations ***

         #    Occupation            Energy/Eh            Energy/eV
      -------------------------------------------------------------
         1        2.0000           -0.6265194             -17.0485
       ...           ...                  ...                  ...
      3517        2.0000           -0.3952645             -10.7557
      3518        2.0000           -0.3952142             -10.7543
      3519        2.0000           -0.3951656             -10.7530
      3520        2.0000           -0.3951540             -10.7527
      3521        2.0000           -0.3949789             -10.7479
      3522        2.0000           -0.3948283             -10.7438
      3523        2.0000           -0.3942224             -10.7273 (HOMO)
      3524                          0.0290248               0.7898 (LUMO)
      3525                          0.0302183               0.8223
      3526                          0.0305246               0.8306
      3527                          0.0310161               0.8440
      3528                          0.0311109               0.8466
       ...                                ...                  ...
      7046                          0.3851573              10.4807
      -------------------------------------------------------------
                  HL-Gap            0.4232472 Eh           11.5171 eV
             Fermi-level           -0.1825988 Eh           -4.9688 eV

 SCC (total)                   0 d,  0 h, 17 min, 25.259 sec
 SCC setup                      ...        0 min,  0.543 sec (  0.052%)
 Dispersion                     ...        0 min,  4.195 sec (  0.401%)
 classical contributions        ...        0 min,  0.214 sec (  0.020%)
 integral evaluation            ...        0 min,  7.094 sec (  0.679%)
 iterations                     ...       12 min, 38.312 sec ( 72.548%)
 molecular gradient             ...        4 min, 23.938 sec ( 25.251%)
 printout                       ...        0 min, 10.962 sec (  1.049%)

         :::::::::::::::::::::::::::::::::::::::::::::::::::::
         ::                     SUMMARY                     ::
         :::::::::::::::::::::::::::::::::::::::::::::::::::::
         :: total energy           -3716.252155759375 Eh    ::
         :: gradient norm              0.018872715085 Eh/a0 ::
         :: HOMO-LUMO gap             11.517143014150 eV    ::
         ::.................................................::
         :: SCC energy             -3772.041464232362 Eh    ::
         :: -> isotropic ES            0.586153294624 Eh    ::
         :: -> anisotropic ES          1.298039342184 Eh    ::
         :: -> anisotropic XC          2.076691172303 Eh    ::
         :: -> dispersion             -4.538632067409 Eh    ::
         :: repulsion energy          55.118413572241 Eh    ::
         :: add. restraining           0.000000000000 Eh    ::
         :: total charge              -0.000000000011 e     ::
         :::::::::::::::::::::::::::::::::::::::::::::::::::::

      ----------------------------------------------------------- 
     |              Fast Inertial Relaxation Engine              |
      ----------------------------------------------------------- 

          ...................................................
          :                      SETUP                      :
          :.................................................:
          :   energy convergence        0.5000000E-05 Eh    :
          :   grad. convergence         0.1000000E-02 Eh/a0 :
          :   optimization log               true           :
          :   writing optlog all                1     steps :
          :   Hessian reset                    20     steps :
          :   time step scaling                 5     steps :
          :   maximium step len.        1.0000000     a0    :
          :   initial time step         0.2500000     fs    :
          :   maximum time step         1.2500000     fs    :
          :   power reset thr           0.0000000     au    :
          :   alpha parameter           0.1000000           :
          :   BFGS update                   false           :
          :   preconditioning               false           :
          ...................................................

........................................................................
.............................. CYCLE    1 ..............................
........................................................................

 iter      E             dE          RMSdq      gap      omega  full diag
   1  -3772.0449688 -0.377204E+04  0.253E-04   11.52       0.0  T
   2  -3772.0449689 -0.280565E-07  0.149E-04   11.52      11.3  T
   3  -3772.0449689 -0.405180E-09  0.490E-05   11.52      34.3  T
     SCC iter.                  ...        3 min, 46.661 sec
     gradient                   ...        4 min, 23.601 sec
 * total energy  : -3716.2521959 Eh     change    :  -0.4017496E-04 Eh
   gradient norm :     0.0174763 Eh/a0  converged?    E=F G=F D=F
   time step     :     0.2500000 fs     power     :   0.2050929E-08
   step length   :     0.0022118 a0     speed     :   0.2140076E-03

........................................................................
.............................. CYCLE    2 ..............................
........................................................................

 iter      E             dE          RMSdq      gap      omega  full diag
   1  -3772.0500682 -0.377205E+04  0.371E-04   11.52       0.0  T
   2  -3772.0500682 -0.567920E-07  0.220E-04   11.52       7.7  T
   3  -3772.0500682 -0.812179E-09  0.689E-05   11.52      24.4  T
     SCC iter.                  ...        3 min, 49.564 sec
     gradient                   ...        4 min, 24.728 sec
 * total energy  : -3716.2522492 Eh     change    :  -0.5326942E-04 Eh
   gradient norm :     0.0154757 Eh/a0  converged?    E=F G=F D=F
   time step     :     0.2500000 fs     power     :   0.2652178E-08
   step length   :     0.0032356 a0     speed     :   0.3130654E-03

........................................................................
.............................. CYCLE    3 ..............................
........................................................................

 iter      E             dE          RMSdq      gap      omega  full diag
   1  -3772.0565368 -0.377206E+04  0.474E-04   11.52       0.0  T
   2  -3772.0565369 -0.913283E-07  0.281E-04   11.52       6.0  T
   3  -3772.0565369 -0.144291E-08  0.869E-05   11.52      19.3  T
     SCC iter.                  ...        3 min, 45.199 sec
     gradient                   ...        4 min, 23.662 sec
 * total energy  : -3716.2523079 Eh     change    :  -0.5866997E-04 Eh
   gradient norm :     0.0129997 Eh/a0  converged?    E=F G=F D=F
   time step     :     0.2500000 fs     power     :   0.2834381E-08
   step length   :     0.0041407 a0     speed     :   0.4006313E-03

........................................................................
.............................. CYCLE    4 ..............................
........................................................................

 iter      E             dE          RMSdq      gap      omega  full diag
   1  -3772.0640788 -0.377206E+04  0.560E-04   11.52       0.0  T
   2  -3772.0640789 -0.124278E-06  0.332E-04   11.52       5.1  T
   3  -3772.0640789 -0.197633E-08  0.101E-04   11.52      16.7  T
     SCC iter.                  ...        3 min, 47.399 sec
     gradient                   ...        4 min, 22.938 sec
 * total energy  : -3716.2523640 Eh     change    :  -0.5609559E-04 Eh
   gradient norm :     0.0102539 Eh/a0  converged?    E=F G=F D=F
   time step     :     0.2500000 fs     power     :   0.2592206E-08
   step length   :     0.0048953 a0     speed     :   0.4736498E-03

........................................................................
.............................. CYCLE    5 ..............................
........................................................................

 iter      E             dE          RMSdq      gap      omega  full diag
   1  -3772.0723192 -0.377207E+04  0.626E-04   11.52       0.0  T
   2  -3772.0723194 -0.149219E-06  0.372E-04   11.52       4.5  T
   3  -3772.0723194 -0.230830E-08  0.109E-04   11.52      15.4  T
     SCC iter.                  ...        3 min, 42.728 sec
     gradient                   ...        4 min, 24.830 sec
 * total energy  : -3716.2524104 Eh     change    :  -0.4640602E-04 Eh
   gradient norm :     0.0075921 Eh/a0  converged?    E=F G=F D=F
   time step     :     0.2500000 fs     power     :   0.1998167E-08
   step length   :     0.0054725 a0     speed     :   0.5294930E-03

........................................................................
.............................. CYCLE    6 ..............................
........................................................................

 iter      E             dE          RMSdq      gap      omega  full diag
   1  -3772.0816564 -0.377208E+04  0.739E-04   11.52       0.0  T
   2  -3772.0816566 -0.195519E-06  0.439E-04   11.52       3.8  T
   3  -3772.0816566 -0.295677E-08  0.124E-04   11.52      13.6  T
     SCC iter.                  ...        3 min, 48.845 sec
     gradient                   ...        4 min, 25.013 sec
 * total energy  : -3716.2524448 Eh     change    :  -0.3447002E-04 Eh
   gradient norm :     0.0055780 Eh/a0  converged?    E=F G=F D=F
   time step     :     0.2750000 fs     power     :   0.1110097E-08
   step length   :     0.0064690 a0     speed     :   0.5690082E-03

........................................................................
.............................. CYCLE    7 ..............................
........................................................................

 iter      E             dE          RMSdq      gap      omega  full diag
   1  -3772.0911937 -0.377209E+04  0.825E-04   11.52       0.0  T
   2  -3772.0911939 -0.210216E-06  0.491E-04   11.52       3.4  T
   3  -3772.0911939 -0.302407E-08  0.124E-04   11.52      13.6  T
     SCC iter.                  ...        3 min, 46.353 sec
     gradient                   ...        4 min, 23.761 sec
 * total energy  : -3716.2524617 Eh     change    :  -0.1682003E-04 Eh
   gradient norm :     0.0056826 Eh/a0  converged?    E=F G=F D=F
   time step     :     0.3025000 fs     power     :   0.1820147E-09
   step length   :     0.0072234 a0     speed     :   0.5776059E-03

........................................................................
.............................. CYCLE    8 ..............................
........................................................................

 iter      E             dE          RMSdq      gap      omega  full diag
   1  -3772.0994030 -0.377210E+04  0.853E-04   11.52       0.0  T
   2  -3772.0994032 -0.167120E-06  0.509E-04   11.52       3.3  T
   3  -3772.0994032 -0.226555E-08  0.103E-04   11.52      16.4  T
     SCC iter.                  ...        3 min, 43.070 sec
     gradient                   ...        4 min, 23.370 sec
 * total energy  : -3716.2524627 Eh     change    :  -0.1042245E-05 Eh
   gradient norm :     0.0073452 Eh/a0  converged?    E=T G=F D=F
   time step     :     0.3327500 fs     power     :  -0.3895440E-09
   step length   :     0.0074312 a0     speed     :   0.5401985E-03

........................................................................
.............................. CYCLE    9 ..............................
........................................................................
 * reset velocities

 iter      E             dE          RMSdq      gap      omega  full diag
   1  -3772.0991281 -0.377210E+04  0.295E-05   11.52       0.0  T
   2  -3772.0991281 -0.105001E-08  0.142E-05   11.52     118.5  T
   3  -3772.0991281 -0.454747E-12  0.779E-06   11.52     216.0  T
     SCC iter.                  ...        3 min, 45.336 sec
     gradient                   ...        4 min, 24.385 sec
 * total energy  : -3716.2524641 Eh     change    :  -0.1385284E-05 Eh
   gradient norm :     0.0072262 Eh/a0  converged?    E=T G=F D=T
   time step     :     0.1663750 fs     power     :   0.1098636E-09
   step length   :     0.0001906 a0     speed     :   0.2771495E-04

........................................................................
.............................. CYCLE   10 ..............................
........................................................................

 iter      E             dE          RMSdq      gap      omega  full diag
   1  -3772.0985825 -0.377210E+04  0.451E-05   11.52       0.0  T
   2  -3772.0985825 -0.690761E-09  0.268E-05   11.52      62.8  T
   3  -3772.0985825  0.132331E-09  0.740E-06   11.52     227.2  T
     SCC iter.                  ...        3 min, 46.597 sec
     gradient                   ...        4 min, 23.708 sec
 * total energy  : -3716.2524668 Eh     change    :  -0.2688798E-05 Eh
   gradient norm :     0.0069851 Eh/a0  converged?    E=T G=F D=T
   time step     :     0.1663750 fs     power     :   0.2106473E-09
   step length   :     0.0003782 a0     speed     :   0.5498074E-04

........................................................................
.............................. CYCLE   11 ..............................
........................................................................

 iter      E             dE          RMSdq      gap      omega  full diag
   1  -3772.0977779 -0.377210E+04  0.654E-05   11.52       0.0  T
   2  -3772.0977779 -0.128875E-08  0.388E-05   11.52      43.4  T
   3  -3772.0977779 -0.436557E-10  0.108E-05   11.52     155.8  T
     SCC iter.                  ...        3 min, 44.550 sec
     gradient                   ...        4 min, 25.532 sec
 * total energy  : -3716.2524706 Eh     change    :  -0.3808740E-05 Eh
   gradient norm :     0.0066330 Eh/a0  converged?    E=T G=F D=T
   time step     :     0.1663750 fs     power     :   0.2957844E-09
   step length   :     0.0005594 a0     speed     :   0.8133410E-04

........................................................................
.............................. CYCLE   12 ..............................
........................................................................

 iter      E             dE          RMSdq      gap      omega  full diag
   1  -3772.0967312 -0.377210E+04  0.855E-05   11.52       0.0  T
   2  -3772.0967312 -0.226692E-08  0.507E-05   11.52      33.2  T
   3  -3772.0967312 -0.154614E-10  0.139E-05   11.52     120.8  T
     SCC iter.                  ...        3 min, 44.622 sec
     gradient                   ...        4 min, 24.190 sec
 * total energy  : -3716.2524753 Eh     change    :  -0.4682573E-05 Eh
   gradient norm :     0.0061809 Eh/a0  converged?    E=T G=F D=T
   time step     :     0.1663750 fs     power     :   0.3600083E-09
   step length   :     0.0007315 a0     speed     :   0.1063489E-03

........................................................................
.............................. CYCLE   13 ..............................
........................................................................

 iter      E             dE          RMSdq      gap      omega  full diag
   1  -3772.0954653 -0.377210E+04  0.104E-04   11.52       0.0  T
   2  -3772.0954653 -0.319505E-08  0.617E-05   11.52      27.3  T
   3  -3772.0954653 -0.409273E-10  0.167E-05   11.52     100.5  T
     SCC iter.                  ...        3 min, 44.925 sec
     gradient                   ...        4 min, 23.485 sec
 * total energy  : -3716.2524805 Eh     change    :  -0.5260354E-05 Eh
   gradient norm :     0.0056445 Eh/a0  converged?    E=F G=F D=T
   time step     :     0.1663750 fs     power     :   0.3997641E-09
   step length   :     0.0008916 a0     speed     :   0.1296298E-03

........................................................................
.............................. CYCLE   14 ..............................
........................................................................

 iter      E             dE          RMSdq      gap      omega  full diag
   1  -3772.0940087 -0.377209E+04  0.121E-04   11.52       0.0  T
   2  -3772.0940087 -0.438786E-08  0.716E-05   11.52      23.5  T
   3  -3772.0940087 -0.181899E-11  0.191E-05   11.52      87.9  T
     SCC iter.                  ...        3 min, 41.961 sec
     gradient                   ...        4 min, 24.233 sec
 * total energy  : -3716.2524860 Eh     change    :  -0.5515152E-05 Eh
   gradient norm :     0.0050455 Eh/a0  converged?    E=F G=F D=F
   time step     :     0.1663750 fs     power     :   0.4135604E-09
   step length   :     0.0010374 a0     speed     :   0.1508202E-03

........................................................................
.............................. CYCLE   15 ..............................
........................................................................

 iter      E             dE          RMSdq      gap      omega  full diag
   1  -3772.0922171 -0.377209E+04  0.150E-04   11.52       0.0  T
   2  -3772.0922171 -0.653836E-08  0.890E-05   11.52      18.9  T
   3  -3772.0922171 -0.945874E-10  0.235E-05   11.52      71.5  T
     SCC iter.                  ...        3 min, 50.688 sec
     gradient                   ...        4 min, 23.642 sec
 * total energy  : -3716.2524921 Eh     change    :  -0.6026247E-05 Eh
   gradient norm :     0.0043456 Eh/a0  converged?    E=F G=F D=F
   time step     :     0.1830125 fs     power     :   0.3995089E-09
   step length   :     0.0012975 a0     speed     :   0.1714964E-03

........................................................................
.............................. CYCLE   16 ..............................
........................................................................

 iter      E             dE          RMSdq      gap      omega  full diag
   1  -3772.0900824 -0.377209E+04  0.182E-04   11.52       0.0  T
   2  -3772.0900824 -0.931550E-08  0.108E-04   11.52      15.6  T
   3  -3772.0900824 -0.491127E-10  0.278E-05   11.52      60.6  T
     SCC iter.                  ...        3 min, 49.091 sec
     gradient                   ...        4 min, 24.913 sec
 * total energy  : -3716.2524981 Eh     change    :  -0.6068034E-05 Eh
   gradient norm :     0.0035947 Eh/a0  converged?    E=F G=F D=F
   time step     :     0.2013138 fs     power     :   0.3533551E-09
   step length   :     0.0015868 a0     speed     :   0.1906574E-03

........................................................................
.............................. CYCLE   17 ..............................
........................................................................

 iter      E             dE          RMSdq      gap      omega  full diag
   1  -3772.0876429 -0.377209E+04  0.214E-04   11.52       0.0  T
   2  -3772.0876429 -0.122664E-07  0.128E-04   11.52      13.2  T
   3  -3772.0876429  0.309228E-10  0.313E-05   11.52      53.7  T
     SCC iter.                  ...        3 min, 47.571 sec
     gradient                   ...        4 min, 23.993 sec
 * total energy  : -3716.2525037 Eh     change    :  -0.5582035E-05 Eh
   gradient norm :     0.0029276 Eh/a0  converged?    E=F G=F D=F
   time step     :     0.2214451 fs     power     :   0.2770192E-09
   step length   :     0.0018940 a0     speed     :   0.2068816E-03

........................................................................
.............................. CYCLE   18 ..............................
........................................................................

 iter      E             dE          RMSdq      gap      omega  full diag
   1  -3772.0850273 -0.377209E+04  0.243E-04   11.52       0.0  T
   2  -3772.0850273 -0.140799E-07  0.145E-04   11.52      11.6  T
   3  -3772.0850273 -0.132331E-09  0.329E-05   11.52      51.2  T
     SCC iter.                  ...        3 min, 49.278 sec
     gradient                   ...        4 min, 24.330 sec
 * total energy  : -3716.2525083 Eh     change    :  -0.4529866E-05 Eh
   gradient norm :     0.0026041 Eh/a0  converged?    E=T G=F D=F
   time step     :     0.2435896 fs     power     :   0.1844828E-09
   step length   :     0.0021948 a0     speed     :   0.2179496E-03

........................................................................
.............................. CYCLE   19 ..............................
........................................................................

 iter      E             dE          RMSdq      gap      omega  full diag
   1  -3772.0825044 -0.377208E+04  0.262E-04   11.52       0.0  T
   2  -3772.0825044 -0.136474E-07  0.156E-04   11.52      10.8  T
   3  -3772.0825044 -0.500222E-10  0.307E-05   11.52      54.8  T
     SCC iter.                  ...        3 min, 46.576 sec
     gradient                   ...        4 min, 25.017 sec
 * total energy  : -3716.2525115 Eh     change    :  -0.3270587E-05 Eh
   gradient norm :     0.0027941 Eh/a0  converged?    E=T G=F D=F
   time step     :     0.2679486 fs     power     :   0.1053295E-09
   step length   :     0.0024458 a0     speed     :   0.2207897E-03

........................................................................
.............................. CYCLE   20 ..............................
........................................................................

 iter      E             dE          RMSdq      gap      omega  full diag
   1  -3772.0804229 -0.377208E+04  0.268E-04   11.52       0.0  T
   2  -3772.0804229 -0.103532E-07  0.159E-04   11.52      10.6  T
   3  -3772.0804229 -0.115961E-09  0.246E-05   11.52      68.4  T
     SCC iter.                  ...        3 min, 46.412 sec
     gradient                   ...        4 min, 25.779 sec
 * total energy  : -3716.2525140 Eh     change    :  -0.2517276E-05 Eh
   gradient norm :     0.0032571 Eh/a0  converged?    E=T G=F D=F
   time step     :     0.2947435 fs     power     :   0.6999875E-10
   step length   :     0.0026255 a0     speed     :   0.2154652E-03
 * RMSD in coord.:     0.0006588 a0     energy gain  -0.3582832E-03 Eh

........................................................................
.............................. CYCLE   21 ..............................
........................................................................

 iter      E             dE          RMSdq      gap      omega  full diag
   1  -3772.0793614 -0.377208E+04  0.205E-04   11.52       0.0  T
   2  -3772.0793614 -0.372665E-08  0.121E-04   11.52      13.9  T
   3  -3772.0793614 -0.169166E-09  0.136E-05   11.52     124.0  T
     SCC iter.                  ...        3 min, 41.610 sec
     gradient                   ...        4 min, 24.280 sec
 * total energy  : -3716.2525162 Eh     change    :  -0.2122092E-05 Eh
   gradient norm :     0.0035522 Eh/a0  converged?    E=T G=F D=F
   time step     :     0.2500000 fs     power     :   0.9101480E-10
   step length   :     0.0021188 a0     speed     :   0.2050053E-03

........................................................................
.............................. CYCLE   22 ..............................
........................................................................

 iter      E             dE          RMSdq      gap      omega  full diag
   1  -3772.0790024 -0.377208E+04  0.188E-04   11.52       0.0  T
   2  -3772.0790024 -0.213413E-08  0.111E-04   11.52      15.2  T
   3  -3772.0790024 -0.186901E-09  0.109E-05   11.52     153.9  T
     SCC iter.                  ...        3 min, 42.566 sec
     gradient                   ...        4 min, 25.477 sec
 * total energy  : -3716.2525189 Eh     change    :  -0.2773691E-05 Eh
   gradient norm :     0.0036314 Eh/a0  converged?    E=T G=F D=F
   time step     :     0.2500000 fs     power     :   0.1339512E-09
   step length   :     0.0020440 a0     speed     :   0.1977634E-03

........................................................................
.............................. CYCLE   23 ..............................
........................................................................

 iter      E             dE          RMSdq      gap      omega  full diag
   1  -3772.0793013 -0.377208E+04  0.181E-04   11.52       0.0  T
   2  -3772.0793013 -0.229966E-08  0.105E-04   11.52      16.0  T
   3  -3772.0793013 -0.180989E-09  0.133E-05   11.52     126.3  T
     SCC iter.                  ...        3 min, 43.177 sec
     gradient                   ...        4 min, 25.611 sec
 * total energy  : -3716.2525225 Eh     change    :  -0.3539546E-05 Eh
   gradient norm :     0.0034786 Eh/a0  converged?    E=T G=F D=F
   time step     :     0.2500000 fs     power     :   0.1772787E-09
   step length   :     0.0020199 a0     speed     :   0.1954338E-03

........................................................................
.............................. CYCLE   24 ..............................
........................................................................

 iter      E             dE          RMSdq      gap      omega  full diag
   1  -3772.0801892 -0.377208E+04  0.182E-04   11.52       0.0  T
   2  -3772.0801892 -0.374303E-08  0.105E-04   11.52      16.0  T
   3  -3772.0801892  0.159162E-10  0.184E-05   11.52      91.6  T
     SCC iter.                  ...        3 min, 41.085 sec
     gradient                   ...        4 min, 25.082 sec
 * total energy  : -3716.2525266 Eh     change    :  -0.4133998E-05 Eh
   gradient norm :     0.0031190 Eh/a0  converged?    E=T G=F D=F
   time step     :     0.2500000 fs     power     :   0.2045368E-09
   step length   :     0.0020423 a0     speed     :   0.1975988E-03

........................................................................
.............................. CYCLE   25 ..............................
........................................................................

 iter      E             dE          RMSdq      gap      omega  full diag
   1  -3772.0815797 -0.377208E+04  0.188E-04   11.52       0.0  T
   2  -3772.0815797 -0.569071E-08  0.108E-04   11.52      15.6  T
   3  -3772.0815797  0.345608E-10  0.232E-05   11.52      72.3  T
     SCC iter.                  ...        3 min, 39.753 sec
     gradient                   ...        4 min, 23.389 sec
 * total energy  : -3716.2525309 Eh     change    :  -0.4276016E-05 Eh
   gradient norm :     0.0026077 Eh/a0  converged?    E=T G=F D=F
   time step     :     0.2500000 fs     power     :   0.2065006E-09
   step length   :     0.0020949 a0     speed     :   0.2026960E-03

........................................................................
.............................. CYCLE   26 ..............................
........................................................................

 iter      E             dE          RMSdq      gap      omega  full diag
   1  -3772.0835722 -0.377208E+04  0.215E-04   11.52       0.0  T
   2  -3772.0835722 -0.951104E-08  0.123E-04   11.52      13.6  T
   3  -3772.0835722 -0.818545E-10  0.300E-05   11.52      56.0  T
     SCC iter.                  ...        3 min, 43.311 sec
     gradient                   ...        4 min, 25.125 sec
 * total energy  : -3716.2525352 Eh     change    :  -0.4302846E-05 Eh
   gradient norm :     0.0019878 Eh/a0  converged?    E=T G=F D=F
   time step     :     0.2750000 fs     power     :   0.1775710E-09
   step length   :     0.0023876 a0     speed     :   0.2100159E-03

........................................................................
.............................. CYCLE   27 ..............................
........................................................................

 iter      E             dE          RMSdq      gap      omega  full diag
   1  -3772.0861008 -0.377209E+04  0.241E-04   11.52       0.0  T
   2  -3772.0861008 -0.134423E-07  0.138E-04   11.52      12.2  T
   3  -3772.0861008 -0.745786E-10  0.352E-05   11.52      47.8  T
     SCC iter.                  ...        3 min, 44.454 sec
     gradient                   ...        4 min, 23.784 sec
 * total energy  : -3716.2525388 Eh     change    :  -0.3635664E-05 Eh
   gradient norm :     0.0015412 Eh/a0  converged?    E=T G=F D=F
   time step     :     0.3025000 fs     power     :   0.1208358E-09
   step length   :     0.0027139 a0     speed     :   0.2170109E-03

........................................................................
.............................. CYCLE   28 ..............................
........................................................................

 iter      E             dE          RMSdq      gap      omega  full diag
   1  -3772.0888764 -0.377209E+04  0.251E-04   11.52       0.0  T
   2  -3772.0888764 -0.141795E-07  0.144E-04   11.52      11.6  T
   3  -3772.0888764 -0.804903E-10  0.353E-05   11.52      47.6  T
     SCC iter.                  ...        3 min, 45.070 sec
     gradient                   ...        4 min, 22.967 sec
 * total energy  : -3716.2525413 Eh     change    :  -0.2495653E-05 Eh
   gradient norm :     0.0017030 Eh/a0  converged?    E=T G=F D=F
   time step     :     0.3327500 fs     power     :   0.6161224E-10
   step length   :     0.0030101 a0     speed     :   0.2188139E-03

........................................................................
.............................. CYCLE   29 ..............................
........................................................................

 iter      E             dE          RMSdq      gap      omega  full diag
   1  -3772.0913720 -0.377209E+04  0.236E-04   11.52       0.0  T
   2  -3772.0913720 -0.953150E-08  0.136E-04   11.52      12.4  T
   3  -3772.0913720 -0.709406E-10  0.280E-05   11.52      60.0  T
     SCC iter.                  ...        3 min, 43.092 sec
     gradient                   ...        4 min, 22.825 sec
 * total energy  : -3716.2525431 Eh     change    :  -0.1754994E-05 Eh
   gradient norm :     0.0021988 Eh/a0  converged?    E=T G=F D=F
   time step     :     0.3660250 fs     power     :   0.3740889E-10
   step length   :     0.0031922 a0     speed     :   0.2109554E-03

........................................................................
.............................. CYCLE   30 ..............................
........................................................................

 iter      E             dE          RMSdq      gap      omega  full diag
   1  -3772.0931632 -0.377209E+04  0.209E-04   11.52       0.0  T
   2  -3772.0931632 -0.383170E-08  0.121E-04   11.52      13.9  T
   3  -3772.0931632 -0.100044E-09  0.162E-05   11.52     103.6  T
     SCC iter.                  ...        3 min, 42.141 sec
     gradient                   ...        4 min, 24.351 sec
 * total energy  : -3716.2525452 Eh     change    :  -0.2102076E-05 Eh
   gradient norm :     0.0025209 Eh/a0  converged?    E=T G=F D=F
   time step     :     0.4026275 fs     power     :   0.5612232E-10
   step length   :     0.0033395 a0     speed     :   0.2006302E-03

........................................................................
.............................. CYCLE   31 ..............................
........................................................................

 iter      E             dE          RMSdq      gap      omega  full diag
   1  -3772.0939563 -0.377209E+04  0.189E-04   11.52       0.0  T
   2  -3772.0939563 -0.110595E-08  0.111E-04   11.52      15.1  T
   3  -3772.0939563 -0.450200E-10  0.869E-06   11.52     193.5  T
     SCC iter.                  ...        3 min, 42.727 sec
     gradient                   ...        4 min, 23.264 sec
 * total energy  : -3716.2525486 Eh     change    :  -0.3455023E-05 Eh
   gradient norm :     0.0024472 Eh/a0  converged?    E=T G=F D=F
   time step     :     0.4428903 fs     power     :   0.9473037E-10
   step length   :     0.0035783 a0     speed     :   0.1954304E-03

........................................................................
.............................. CYCLE   32 ..............................
........................................................................

 iter      E             dE          RMSdq      gap      omega  full diag
   1  -3772.0936059 -0.377209E+04  0.197E-04   11.52       0.0  T
   2  -3772.0936059 -0.490991E-08  0.119E-04   11.52      14.1  T
   3  -3772.0936059  0.118689E-09  0.181E-05   11.52      93.0  T
     SCC iter.                  ...        3 min, 43.779 sec
     gradient                   ...        4 min, 24.596 sec
 * total energy  : -3716.2525535 Eh     change    :  -0.4835540E-05 Eh
   gradient norm :     0.0019731 Eh/a0  converged?    E=T G=F D=F
   time step     :     0.4871793 fs     power     :   0.1163533E-09
   step length   :     0.0039883 a0     speed     :   0.1980237E-03

........................................................................
.............................. CYCLE   33 ..............................
........................................................................

 iter      E             dE          RMSdq      gap      omega  full diag
   1  -3772.0922555 -0.377209E+04  0.224E-04   11.52       0.0  T
   2  -3772.0922555 -0.138411E-07  0.137E-04   11.52      12.3  T
   3  -3772.0922555  0.864020E-11  0.338E-05   11.52      49.8  T
     SCC iter.                  ...        3 min, 42.924 sec
     gradient                   ...        4 min, 25.466 sec
 * total energy  : -3716.2525585 Eh     change    :  -0.5013617E-05 Eh
   gradient norm :     0.0014838 Eh/a0  converged?    E=F G=F D=F
   time step     :     0.5358972 fs     power     :   0.9675141E-10
   step length   :     0.0045575 a0     speed     :   0.2057143E-03

........................................................................
.............................. CYCLE   34 ..............................
........................................................................

 iter      E             dE          RMSdq      gap      omega  full diag
   1  -3772.0906771 -0.377209E+04  0.230E-04   11.52       0.0  T
   2  -3772.0906772 -0.176783E-07  0.142E-04   11.52      11.9  T
   3  -3772.0906772 -0.101863E-09  0.379E-05   11.52      44.3  T
     SCC iter.                  ...        3 min, 44.151 sec
     gradient                   ...        4 min, 23.080 sec
 * total energy  : -3716.2525625 Eh     change    :  -0.4023799E-05 Eh
   gradient norm :     0.0017009 Eh/a0  converged?    E=T G=F D=F
   time step     :     0.5894869 fs     power     :   0.6147353E-10
   step length   :     0.0051555 a0     speed     :   0.2115479E-03

........................................................................
.............................. CYCLE   35 ..............................
........................................................................

 iter      E             dE          RMSdq      gap      omega  full diag
   1  -3772.0901761 -0.377209E+04  0.213E-04   11.52       0.0  T
   2  -3772.0901762 -0.835098E-08  0.131E-04   11.52      12.9  T
   3  -3772.0901762 -0.623004E-10  0.218E-05   11.52      77.2  T
     SCC iter.                  ...        3 min, 41.256 sec
     gradient                   ...        4 min, 24.399 sec
 * total energy  : -3716.2525665 Eh     change    :  -0.3982862E-05 Eh
   gradient norm :     0.0020448 Eh/a0  converged?    E=T G=F D=F
   time step     :     0.6484356 fs     power     :   0.6511954E-10
   step length   :     0.0056374 a0     speed     :   0.2102951E-03

........................................................................
.............................. CYCLE   36 ..............................
........................................................................

 iter      E             dE          RMSdq      gap      omega  full diag
   1  -3772.0916198 -0.377209E+04  0.254E-04   11.52       0.0  T
   2  -3772.0916198 -0.306272E-08  0.150E-04   11.52      11.2  T
   3  -3772.0916198 -0.103682E-09  0.150E-05   11.52     112.4  T
     SCC iter.                  ...        3 min, 40.622 sec
     gradient                   ...        4 min, 24.162 sec
 * total energy  : -3716.2525721 Eh     change    :  -0.5652255E-05 Eh
   gradient norm :     0.0018026 Eh/a0  converged?    E=F G=F D=F
   time step     :     0.7132792 fs     power     :   0.9218924E-10
   step length   :     0.0062416 a0     speed     :   0.2116655E-03

........................................................................
.............................. CYCLE   37 ..............................
........................................................................

 iter      E             dE          RMSdq      gap      omega  full diag
   1  -3772.0950260 -0.377210E+04  0.338E-04   11.52       0.0  T
   2  -3772.0950261 -0.140653E-07  0.196E-04   11.52       8.6  T
   3  -3772.0950261 -0.181899E-10  0.347E-05   11.52      48.5  T
     SCC iter.                  ...        3 min, 47.820 sec
     gradient                   ...        4 min, 23.505 sec
 * total energy  : -3716.2525786 Eh     change    :  -0.6436540E-05 Eh
   gradient norm :     0.0013436 Eh/a0  converged?    E=F G=F D=F
   time step     :     0.7846071 fs     power     :   0.8262883E-10
   step length   :     0.0071364 a0     speed     :   0.2200111E-03

........................................................................
.............................. CYCLE   38 ..............................
........................................................................

 iter      E             dE          RMSdq      gap      omega  full diag
   1  -3772.0986656 -0.377210E+04  0.336E-04   11.52       0.0  T
   2  -3772.0986657 -0.184073E-07  0.195E-04   11.52       8.6  T
   3  -3772.0986657 -0.397449E-09  0.377E-05   11.52      44.7  T
     SCC iter.                  ...        3 min, 43.623 sec
     gradient                   ...        4 min, 24.555 sec
 * total energy  : -3716.2525840 Eh     change    :  -0.5450681E-05 Eh
   gradient norm :     0.0016827 Eh/a0  converged?    E=F G=F D=F
   time step     :     0.8630678 fs     power     :   0.5746881E-10
   step length   :     0.0081098 a0     speed     :   0.2272892E-03

........................................................................
.............................. CYCLE   39 ..............................
........................................................................

 iter      E             dE          RMSdq      gap      omega  full diag
   1  -3772.0998407 -0.377210E+04  0.264E-04   11.52       0.0  T
   2  -3772.0998407 -0.790487E-08  0.155E-04   11.52      10.8  T
   3  -3772.0998407 -0.411546E-09  0.271E-05   11.52      62.1  T
     SCC iter.                  ...        3 min, 46.567 sec
     gradient                   ...        4 min, 23.640 sec
 * total energy  : -3716.2525905 Eh     change    :  -0.6448123E-05 Eh
   gradient norm :     0.0016475 Eh/a0  converged?    E=F G=F D=F
   time step     :     0.9493746 fs     power     :   0.7569875E-10
   step length   :     0.0089953 a0     speed     :   0.2291899E-03

........................................................................
.............................. CYCLE   40 ..............................
........................................................................

 iter      E             dE          RMSdq      gap      omega  full diag
   1  -3772.0978318 -0.377210E+04  0.329E-04   11.52       0.0  T
   2  -3772.0978319 -0.226401E-07  0.196E-04   11.52       8.6  T
   3  -3772.0978319  0.127329E-09  0.487E-05   11.52      34.5  T
     SCC iter.                  ...        3 min, 45.996 sec
     gradient                   ...        4 min, 23.498 sec
 * total energy  : -3716.2525980 Eh     change    :  -0.7543441E-05 Eh
   gradient norm :     0.0013213 Eh/a0  converged?    E=F G=F D=F
   time step     :     1.0443120 fs     power     :   0.6856084E-10
   step length   :     0.0102426 a0     speed     :   0.2372438E-03

........................................................................
.............................. CYCLE   41 ..............................
........................................................................

 iter      E             dE          RMSdq      gap      omega  full diag
   1  -3772.0959303 -0.377210E+04  0.351E-04   11.52       0.0  T
   2  -3772.0959304 -0.151881E-07  0.209E-04   11.52       8.1  T
   3  -3772.0959304  0.363798E-10  0.327E-05   11.52      51.4  T
     SCC iter.                  ...        3 min, 45.316 sec
     gradient                   ...        4 min, 23.690 sec
 * total energy  : -3716.2526050 Eh     change    :  -0.7025007E-05 Eh
   gradient norm :     0.0016130 Eh/a0  converged?    E=F G=F D=F
   time step     :     1.1487432 fs     power     :   0.6006525E-10
   step length   :     0.0115847 a0     speed     :   0.2439371E-03

........................................................................
.............................. CYCLE   42 ..............................
........................................................................

 iter      E             dE          RMSdq      gap      omega  full diag
   1  -3772.0978813 -0.377210E+04  0.392E-04   11.52       0.0  T
   2  -3772.0978813 -0.185255E-07  0.227E-04   11.52       7.4  T
   3  -3772.0978813 -0.104592E-10  0.437E-05   11.52      38.5  T
     SCC iter.                  ...        3 min, 41.990 sec
     gradient                   ...        4 min, 24.324 sec
 * total energy  : -3716.2526136 Eh     change    :  -0.8540426E-05 Eh
   gradient norm :     0.0012433 Eh/a0  converged?    E=F G=F D=F
   time step     :     1.2500000 fs     power     :   0.6683596E-10
   step length   :     0.0129176 a0     speed     :   0.2499689E-03
 * RMSD in coord.:     0.0016567 a0     energy gain  -0.9954389E-04 Eh

........................................................................
.............................. CYCLE   43 ..............................
........................................................................

 iter      E             dE          RMSdq      gap      omega  full diag
   1  -3772.0983528 -0.377210E+04  0.667E-05   11.52       0.0  T
   2  -3772.0983528 -0.483851E-09  0.392E-05   11.52      42.9  T
   3  -3772.0983528 -0.381988E-10  0.638E-06   11.52     263.6  T
     SCC iter.                  ...        3 min, 42.458 sec
     gradient                   ...        4 min, 23.307 sec
 * total energy  : -3716.2526151 Eh     change    :  -0.1492168E-05 Eh
   gradient norm :     0.0012332 Eh/a0  converged?    E=T G=F D=F
   time step     :     0.2500000 fs     power     :   0.7534642E-10
   step length   :     0.0024738 a0     speed     :   0.2393572E-03

........................................................................
.............................. CYCLE   44 ..............................
........................................................................

 iter      E             dE          RMSdq      gap      omega  full diag
   1  -3772.0988146 -0.377210E+04  0.632E-05   11.52       0.0  T
   2  -3772.0988146 -0.654836E-09  0.369E-05   11.52      45.5  T
   3  -3772.0988146 -0.277396E-10  0.791E-06   11.52     212.5  T
     SCC iter.                  ...        3 min, 48.543 sec
     gradient                   ...        4 min, 23.843 sec
 * total energy  : -3716.2526167 Eh     change    :  -0.1605742E-05 Eh
   gradient norm :     0.0011519 Eh/a0  converged?    E=T G=F D=F
   time step     :     0.2500000 fs     power     :   0.8177506E-10
   step length   :     0.0023920 a0     speed     :   0.2314374E-03

........................................................................
.............................. CYCLE   45 ..............................
........................................................................

 iter      E             dE          RMSdq      gap      omega  full diag
   1  -3772.0991941 -0.377210E+04  0.694E-05   11.52       0.0  T
   2  -3772.0991941 -0.700766E-09  0.408E-05   11.52      41.2  T
   3  -3772.0991941  0.118234E-10  0.776E-06   11.52     216.6  T
     SCC iter.                  ...        3 min, 43.786 sec
     gradient                   ...        4 min, 23.662 sec
 * total energy  : -3716.2526183 Eh     change    :  -0.1653602E-05 Eh
   gradient norm :     0.0010343 Eh/a0  converged?    E=T G=F D=F
   time step     :     0.2500000 fs     power     :   0.8342798E-10
   step length   :     0.0023381 a0     speed     :   0.2262278E-03

........................................................................
.............................. CYCLE   46 ..............................
........................................................................

 iter      E             dE          RMSdq      gap      omega  full diag
   1  -3772.0994404 -0.377210E+04  0.777E-05   11.52       0.0  T
   2  -3772.0994404 -0.720775E-09  0.457E-05   11.52      36.8  T
   3  -3772.0994404  0.582077E-10  0.749E-06   11.52     224.5  T
     SCC iter.                  ...        3 min, 44.539 sec
     gradient                   ...        4 min, 23.543 sec
 * total energy  : -3716.2526199 Eh     change    :  -0.1610043E-05 Eh
   gradient norm :     0.0009378 Eh/a0  converged?    E=T G=T D=F
   time step     :     0.2500000 fs     power     :   0.8059357E-10
   step length   :     0.0023066 a0     speed     :   0.2231721E-03

   *** GEOMETRY OPTIMIZATION CONVERGED AFTER 46 CYCLES ***

------------------------------------------------------------------------
 total energy gain   :        -0.0004642 Eh       -0.2913 kcal/mol
 total RMSD          :         0.0021039 a0        0.0011 Å
 total power (kW/mol):        -0.0264941 (step)   -0.0001 (real)
------------------------------------------------------------------------

 FIRE (total)                  0 d,  6 h, 32 min, 25.852 sec
 setup                          ...        0 min,  0.134 sec (  0.001%)
 velocities                     ...        0 min,  0.003 sec (  0.000%)
 propagation                    ...        0 min,  0.005 sec (  0.000%)
 singlepoint calculation        ...      392 min, 24.901 sec ( 99.996%)
 log and printout               ...        0 min,  0.746 sec (  0.003%)
 preconditioner                 ...        0 min,  0.000 sec (  0.000%)
 model hessian                  ...        0 min,  0.000 sec (  0.000%)
 hessian update                 ...        0 min,  0.000 sec (  0.000%)

================
 final structure:
================
3536
 xtb: 6.6.1 (8d0f1dd)
C           52.52077433447097       69.08345340584439       70.81519211453210
C           51.36560407614167       68.27165783530467       71.39723016458663
C           51.04650564286466       68.76538631069532       72.80813095019097
C           51.68525560492314       66.77207056975672       71.44536139117898
C           51.99952227326413       66.12068059031934       70.09426828310016
C           50.82796181226829       66.28377408043873       69.12512655841360
C           52.30230338769659       64.62255393622718       70.25127762185802
C           53.44546645156298       64.24195763010752       71.20037447246783
C           54.72486038873445       65.01742430413300       70.88493046587040
C           53.76191901786800       62.74054157709853       71.09951837973077
C           52.61566661213732       61.76443815121844       71.38679843792563
C           51.99391603414021       62.01768927605956       72.76028430706447
C           53.11087306075202       60.30909204220003       71.34107618365603
C           53.70848113326771       59.81624252341241       70.01667058959370
C           52.69847280284369       59.92966310031335       68.87568247175464
C           54.15982298294080       58.35065322050139       70.13923202124107
C           55.41355060030947       58.10802770859134       70.98721209844051
C           56.65311720825041       58.68787232050889       70.30809056245077
C           55.65279321258289       56.60875107174105       71.21292922233197
C           54.69059194657652       55.87662231654677       72.15823009061586
C           54.80794177991033       56.41865039549950       73.58054269343741
C           55.02681347921430       54.37807804556615       72.09736655975937
C           54.16708974249482       53.43350691212637       72.94816697123211
C           54.82678050747165       52.05495972202998       72.97207883551268
C           52.73263949891323       53.34280852326228       72.41737531497897
C           51.75773186185732       52.62233952906513       73.36946128313747
C           51.34565966077781       51.26205666825365       72.80610119993476
C           50.50762881175552       53.47207120854126       73.63995590481196
C           50.76029538057509       54.68709173755600       74.54215970449266
C           50.87333838759090       54.25483562345425       76.00419296953449
C           49.63540960955267       55.72592123537543       74.41460813612615
C           49.59004580110549       56.49541586778062       73.09000605456643
C           50.82937148730863       57.37284564691497       72.91307151230832
C           48.35744179853975       57.40826618934755       73.01021775007850
C           46.97902890242557       56.74092793816844       73.10170406230817
C           46.85086331298980       55.57566762353154       72.12169659393305
C           45.87174986631574       57.76353254069349       72.79796236300407
C           45.74338987365282       58.92595739997966       73.78989110593835
C           45.16889526377793       58.43998403045540       75.12018428979111
C           44.84334099754183       60.03697644087811       73.22668560133916
C           45.44514255530701       60.86713368328844       72.08372053291146
C           46.62059153243055       61.71217851859294       72.57591369686672
C           44.37148504537390       61.77728637624122       71.45354224788895
C           43.80251882678736       61.32106133611754       70.10036784512370
C           43.10339957527281       59.96576194079667       70.20708798698432
C           44.84918513476321       61.25976360440544       68.98128318653104
C           45.48121395590884       62.59205715682300       68.55909266956570
C           44.49255161508480       63.45297318345001       67.77681540031017
C           46.72251371129505       62.31619974303786       67.69736479669631
C           47.95931903143862       61.93182825809057       68.52273205391145
C           48.76631815719741       63.18015262721404       68.87235453803036
C           48.84584735028287       60.92170430805199       67.78278534614577
C           48.29909881106658       59.48934522051721       67.78483898336994
C           48.37370375385495       58.88242859161807       69.18674694144033
C           49.08493251209403       58.57832478587027       66.83037458803166
C           49.04768878958580       58.93715362932959       65.34032756434699
C           47.61547978703249       59.00336723724807       64.81003736647249
C           49.83267496483931       57.90683611521533       64.51264612113705
C           51.30271224074470       57.70527127597146       64.90060748867039
C           52.07619749702659       59.02081196045544       64.86092801586953
C           51.95621595950777       56.67715027536680       63.96186999235690
C           53.13259495136982       55.93474707937720       64.60892220400797
C           53.94737237719602       55.19738993713870       63.54688941081727
C           52.65131569157436       54.95819437825060       65.70062333407564
C           53.15331326469727       55.29071470454463       67.11108524275046
C           54.66342786664711       55.07658057849021       67.19727567733442
C           52.46516627134726       54.40648836271717       68.15986827557956
C           50.98651715973261       54.71733510068211       68.43651748027533
C           50.87114180108934       55.93460317921303       69.34864675130967
C           50.32707259108042       53.48159774373554       69.06548407989665
C           48.80108945717127       53.53004708668916       69.22930948213786
C           48.37273156718553       52.43210744961655       70.20359987048090
C           48.09426131847347       53.34709749251250       67.88047291767903
C           46.60123484208324       53.71487156256988       67.88880729748210
C           45.88314472685352       53.00344375193188       66.74415276254362
C           46.43212084110721       55.23553737017077       67.79351256456238
C           44.99285947052602       55.77304752649079       67.79037164398852
C           45.04346787882059       57.29345329506656       67.65216458216842
C           44.23874995420766       55.36218180814499       69.05984232943226
C           42.77617593236280       55.82244950532083       69.16129818690719
C           42.27441148156227       55.53260421076893       70.57623857315377
C           41.90761333147328       55.11854338847177       68.11137399576153
C           40.47428346624812       55.65204859320987       67.96152252776461
C           39.64184615897209       54.63426435658741       67.18182993066661
C           40.47491530821610       57.01447610295823       67.25852570493072
C           39.12807963268474       57.74741059809326       67.21755582592792
C           39.27664099995370       59.03345339525151       66.40315619780499
C           38.53831583696789       58.03481086678202       68.60634956736510
C           39.44986236577614       58.80773764471526       69.55767099414086
C           38.73974907161244       59.11961306622440       70.86967459970194
H           52.69263478068967       68.83554247589053       69.77097468940543
H           52.30247523428064       70.14772599409049       70.87766003662111
H           53.43686482752837       68.89191736662070       71.37063643460343
H           37.85528463285110       59.72803807437769       70.69238041712177
H           38.42731161824124       58.20191483342578       71.36424843120817
H           39.39937521612889       59.66326934185508       71.54260090503166
H           37.61557991073970       58.60513979767714       68.46805101950186
H           38.25863581587580       57.09029412357955       69.07880032297815
H           41.20164989252255       57.66604463940194       67.74532170978583
H           40.80965370440433       56.86769640155348       66.22765665944519
H           40.03413751926709       55.76049911248980       68.95482963264469
H           40.04688817854810       54.49848190289563       66.18064913387113
H           39.64886143426570       53.67029787775265       67.68633638017184
H           38.60834567065824       54.95791649788879       67.09308339988755
H           42.39228972001477       55.19054941307169       67.13574469007739
H           41.85971414342660       54.05820585023024       68.37323428966998
H           44.24797659357674       54.27409702804673       69.14655519495500
H           44.78359431095318       55.76530794393295       69.91656491341202
H           38.40532588728884       57.11463478858638       66.69038765851822
H           38.33298437078518       59.57339033606700       66.36480759080412
H           40.02906211828873       59.68756415584888       66.83603410191616
H           39.57724157783087       58.79749531458119       65.38499304547119
H           42.73383686011175       56.90323727788864       69.00869873366798
H           42.89811224804946       56.04036430196158       71.30929534359271
H           41.25290891020511       55.87677040673685       70.71334238933304
H           42.30606909940294       54.46403107988758       70.78096646083468
H           44.48077000523357       55.37116256969862       66.91211208475798
H           44.05144785551401       57.70454490372845       67.49934977930698
H           45.46888808809911       57.74450187227967       68.54572849727030
H           45.65625648494645       57.57570465301515       66.79971899481986
H           46.96523577785707       55.69619748410119       68.62840002086372
H           46.91590562413894       55.57342995880411       66.87216572222647
H           46.16734660361787       53.36833629979066       68.82959376136947
H           46.06538905209401       51.93120530912675       66.78921361314683
H           44.80926092959596       53.16248530500420       66.79900692652500
H           46.23922343724643       53.37492209014106       65.78644650524772
H           48.59544098846991       53.94848858113446       67.11906267714367
H           48.20273009162849       52.30013177604931       67.58671055217681
H           48.51742387136285       54.49401693341678       69.65757774215292
H           48.81979887588296       52.58946922513283       71.18205035970405
H           47.29374634181239       52.41573918227306       70.33069079043133
H           48.68746349398569       51.45672900904205       69.83613466077230
H           50.56692423052694       52.60762849417947       68.45400272806127
H           50.77969123725428       53.32567694961393       70.04736965630146
H           50.48323838074358       54.94456322353795       67.49249934324531
H           51.39897889525071       56.78268673304295       68.91976235089297
H           49.83412019769545       56.22315588756675       69.49144995862414
H           51.30613043198469       55.71688306909864       70.32162948061199
H           52.55575864805887       53.37265732295744       67.82400440357843
H           53.00970317527470       54.49066927924593       69.10384387959638
H           52.93909098825716       56.34203915956351       67.32938727310200
H           55.19037602480763       55.68235425206878       66.46619681231441
H           55.03296259896190       55.34100955669948       68.18621580414670
H           54.90383698487120       54.03237278255459       67.00799854459868
H           51.56091910693726       54.94309744124230       65.70690452293097
H           52.98232057022873       53.94654921472036       65.45499420355596
H           53.78607839572435       56.68269675986721       65.06591912316203
H           54.78383680503065       54.67327943321784       64.00433261690358
H           53.32800753835272       54.47042513386305       63.02699950731225
H           54.34578546447305       55.89481700236010       62.81345187387310
H           51.21349909307698       55.94432122155848       63.63962141169787
H           52.30578517032377       57.19407754489711       63.06537672303585
H           51.34042751396646       57.30647529386773       65.91696828198032
H           51.73289005044597       59.70595412450683       65.63167155237544
H           53.13727636248515       58.84501874363557       65.02109473442191
H           51.95434136643003       59.49969505888255       63.89155712330037
H           49.32301931643573       56.94323298948559       64.59207806786722
H           49.79302531867828       58.20862771819049       63.46262144049134
H           49.50738702579275       59.91775804718175       65.19303653098041
H           47.07012558409988       59.83096643113574       65.25613313963656
H           47.61575547796756       59.14470155343125       63.73078816840454
H           47.08537285628205       58.07942981837742       65.03466366273103
H           50.12398165655851       58.57794560585261       67.16273855040752
H           48.70339213376600       57.55987488026148       66.94190629682652
H           47.24922727599371       59.50528032546143       67.48191158358806
H           47.97397122787092       57.87040704858308       69.17960252059116
H           49.40602132356301       58.84169989325073       69.52885365620537
H           47.80407978986986       59.46430431503762       69.90673381823697
H           48.96374348672017       61.26773263548893       66.75465000745237
H           49.83695120653448       60.91177259336089       68.24157110117508
H           47.62923914384241       61.48456584954337       69.46295763435225
H           49.19629035607728       63.62143164639316       67.97588151209867
H           48.13144346966182       63.92475220005782       69.34771510414224
H           49.57648602468270       62.93410834539642       69.55525010497210
H           46.47654173001339       61.51973015942403       66.99245357298334
H           46.95956433951751       63.20385498656717       67.10704166756943
H           45.79331286301382       63.14789849518693       69.44783965801585
H           44.23278825497070       62.96340524268832       66.84044075092595
H           43.58133207717930       63.62311672611603       68.34450725198946
H           44.93051291189197       64.42131548225876       67.54363978884852
H           45.64277193246095       60.57575243596447       69.28244970651900
H           44.37297274691021       60.82204552352887       68.10164784512563
H           43.04232977889997       62.05902406954278       69.81894718248981
H           43.81400909537639       59.17683563160494       70.43959597117359
H           42.34034495321120       59.98590914942798       70.98176668196817
H           42.62081558308941       59.72061256112938       69.26321971079213
H           43.53757543747314       61.87958992217744       72.15201361795003
H           44.78675666497885       62.77744966646117       71.32016880603317
H           45.82363279234382       60.18527456268501       71.31891022002392
H           46.29592819294169       62.39500356352482       73.35863488458638
H           47.41726871072751       61.08853672916318       72.97381853207477
H           47.03554373606774       62.29852190548960       71.75861971309621
H           43.91299057117190       59.58043832173275       72.88424710051949
H           44.59110474338437       60.72175077125043       74.04075363837246
H           46.73185594827462       59.34670759427190       73.98371295855556
H           45.79547684252002       57.66662153576112       75.55685199867116
H           45.10459719617985       59.26128567452982       75.83082397385198
H           44.16972156723971       58.03280942142742       74.97698417688727
H           46.05696008537397       58.16145871735481       71.79795496381554
H           44.91215030633602       57.23975734974191       72.76656621835910
H           46.83111556090451       56.35405904110349       74.11359441552490
H           47.05775198408277       55.91222566536415       71.10782370553957
H           47.54004324861118       54.77325669494152       72.36725716035176
H           45.84237005304828       55.16761467755780       72.14753303034793
H           48.44297489978511       58.14353973468820       73.81295815360807
H           48.40696904300033       57.94979354478610       72.06166097310847
H           49.55606077400979       55.78847439301457       72.25735215848454
H           50.76382541778957       57.92254056815268       71.97616332381246
H           50.90987106147548       58.09000361261548       73.72779902540501
H           51.74025155310703       56.78231984646282       72.89340986385015
H           48.68623911069509       55.20765478763987       74.56212531905635
H           49.74046074526177       56.45304606989717       75.22411161182434
H           51.70778788355754       55.15004100542741       74.25610131177977
H           51.12374993858718       55.10456745430360       76.63598200696406
H           49.92982068473945       53.83751851909324       76.35093843674795
H           51.64627880685561       53.50096027835881       76.13179088742304
H           50.11084293194946       53.80530525189474       72.67931193211987
H           49.74346812868882       52.84724130683660       74.10949078865902
H           52.26283650812191       52.44802093165868       74.32438925525722
H           50.69961080307534       50.73540020860011       73.50588704593122
H           50.80662548446602       51.38318254037254       71.86907650537481
H           52.21947254405823       50.64260028687554       72.61958815285422
H           52.36634403637467       54.35314434876847       72.23494534878522
H           52.75170730102206       52.82875016146043       71.45356340872888
H           54.13773520811969       53.80824207064496       73.97570127536808
H           55.83954689657111       52.12444812633538       73.36386815178327
H           54.26909837634606       51.36760700145624       73.60272171647065
H           54.87465630864889       51.64018357896057       71.96666739696656
H           54.96619505444626       54.04848228320074       71.05599477121848
H           56.06649008025894       54.26031241170788       72.41469317624856
H           53.66658871981523       56.02802894141129       71.80501585775733
H           54.58389892337648       57.48159483813295       73.60896890427425
H           54.11225625598819       55.92034212025169       74.25057968882784
H           55.81719580221630       56.26838698086178       73.95871778319905
H           55.62737938714269       56.11386389168517       70.23789281807449
H           56.66205974342692       56.48665359146604       71.61231445447189
H           55.29606257399897       58.59676966429930       71.95700660069866
H           57.53696752693021       58.52739508827185       70.92157498562871
H           56.82028735663094       58.20089701525629       69.34930650373468
H           56.54952307005665       59.75566175046406       70.14453498577946
H           53.33015323117824       57.77580307258772       70.55414864403669
H           54.35675887390427       57.96238613236567       69.13619821038552
H           54.57551930888319       60.42958668405294       69.76201163408230
H           51.79725320622610       59.36684957386429       69.11187583762734
H           52.42199105969859       60.96534366371741       68.69664089884796
H           53.11948534137867       59.53132175204415       67.95444237523645
H           53.85612478052219       60.18880180108081       72.12998432623425
H           52.26883234891828       59.65977521037692       71.59242752826420
H           51.83588281411156       61.89186335122099       70.63121418538339
H           51.23753771832309       61.26592943274829       72.97701102296283
H           52.75570303489392       61.96992147893135       73.53592372859177
H           51.51833791755961       62.99365405297226       72.80353458349396
H           54.13034822800399       62.55215121569609       70.08994896073983
H           54.57593239199161       62.51929494971227       71.79549072263040
H           53.15173626827579       64.47065527183014       72.22821783304728
H           55.53297144529329       64.69423965039148       71.53732880802184
H           55.03187516675694       64.84000280707106       69.85636742079582
H           54.58876450835152       66.08544350539880       71.02766814576174
H           51.38879614292324       64.13190905079971       70.59209197100714
H           52.54177314346122       64.22503677909921       69.26107998693533
H           52.87475277583598       66.60511483518763       69.65565473371485
H           50.69793535729195       67.32398961531530       68.83828494698560
H           50.99742906642523       65.70456848198087       68.22009288495485
H           49.90441050259289       65.93395155571078       69.58064850205064
H           52.53664321216110       66.63579153519150       72.11448229208003
H           50.83220351055970       66.25081855919268       71.88859831993769
H           50.47779095502685       68.43083606587034       70.77735730320147
H           50.77728456912198       69.81935596405033       72.79433186721668
H           50.21566395930859       68.20628477688294       73.23299017869712
H           51.91041734606697       68.64189439842851       73.45836413153415
H           40.34480232875515       58.22249476247926       69.77245149708780
H           39.76235343254545       59.74408637367279       69.09312276355844
C           73.17906926947877       45.21939397714763       56.04446262807153
C           72.71978329503105       46.55772305965908       55.46599942975024
C           71.19543838963675       46.60574705849892       55.41266481003350
C           73.34689753259755       46.75154214208719       54.08038155916808
C           73.06711760450587       48.09258723765333       53.38597443013628
C           73.56560471420130       48.00969601566594       51.94250693654395
C           73.73970108756113       49.24884401718942       54.13603842330567
C           73.39614737671209       50.66032741993354       53.63540674997358
C           74.37495969776479       51.66148297256348       54.24761463980209
C           71.94859397965141       51.01553813163733       53.99128684282867
C           71.42453750138124       52.36081261908564       53.46472496163954
[...]
  3283   6 C     3284   6 C                                       1.5336028
  3284   6 C     3285   6 C                                       1.5280414
  3284   6 C     3286   6 C                                       1.5347338
  3286   6 C     3287   6 C                                       1.5334507
  3287   6 C     3288   6 C                                       1.5270727
  3287   6 C     3289   6 C                                       1.5387301
  3289   6 C     3290   6 C                                       1.5332069
  3290   6 C     3291   6 C                                       1.5279573
  3292   6 C     3293   6 C                                       1.5340315
  3293   6 C     3294   6 C                                       1.5267340
  3293   6 C     3295   6 C                                       1.5345803
  3295   6 C     3296   6 C                                       1.5348787
  3296   6 C     3297   6 C                                       1.5278730
  3296   6 C     3298   6 C                                       1.5344130
  3298   6 C     3299   6 C                                       1.5322687
  3299   6 C     3300   6 C                                       1.5299245
  3299   6 C     3301   6 C                                       1.5359073
  3301   6 C     3302   6 C                                       1.5344092
  3302   6 C     3303   6 C                                       1.5279707
  3302   6 C     3304   6 C                                       1.5372263
  3304   6 C     3305   6 C                                       1.5365246
  3305   6 C     3306   6 C                                       1.5273997
  3305   6 C     3307   6 C                                       1.5345615
  3307   6 C     3308   6 C                                       1.5363928
  3308   6 C     3309   6 C                                       1.5288211
  3308   6 C     3310   6 C                                       1.5352501
  3310   6 C     3311   6 C                                       1.5400370
  3311   6 C     3312   6 C                                       1.5300787
  3311   6 C     3313   6 C                                       1.5353518
  3313   6 C     3314   6 C                                       1.5317691
  3314   6 C     3315   6 C                                       1.5291009
  3314   6 C     3316   6 C                                       1.5361948
  3316   6 C     3317   6 C                                       1.5332569
  3317   6 C     3318   6 C                                       1.5280971
  3317   6 C     3319   6 C                                       1.5357540
  3319   6 C     3320   6 C                                       1.5327314
  3320   6 C     3321   6 C                                       1.5269790
  3320   6 C     3322   6 C                                       1.5355025
  3323   6 C     3324   6 C                                       1.5279591
  3323   6 C     3325   6 C                                       1.5334880
  3325   6 C     3326   6 C                                       1.5338610
  3326   6 C     3327   6 C                                       1.5300281
  3328   6 C     3329   6 C                                       1.5333546
  3329   6 C     3330   6 C                                       1.5281551
  3329   6 C     3331   6 C                                       1.5364600
  3331   6 C     3332   6 C                                       1.5325380
  3332   6 C     3333   6 C                                       1.5294714
  3332   6 C     3334   6 C                                       1.5376304
  3334   6 C     3335   6 C                                       1.5359708
  3335   6 C     3336   6 C                                       1.5274526
  3337   6 C     3338   6 C                                       1.5371651
  3338   6 C     3339   6 C                                       1.5257815
  3338   6 C     3340   6 C                                       1.5354972
  3341   6 C     3342   6 C                                       1.5291132
  3341   6 C     3343   6 C                                       1.5359677
  3343   6 C     3344   6 C                                       1.5312724
  3344   6 C     3345   6 C                                       1.5304414
  3344   6 C     3346   6 C                                       1.5383356
  3347   6 C     3348   6 C                                       1.5306972
  3347   6 C     3349   6 C                                       1.5320833
  3349   6 C     3350   6 C                                       1.5362375
  3350   6 C     3351   6 C                                       1.5290485
  3350   6 C     3352   6 C                                       1.5320727
  3352   6 C     3353   6 C                                       1.5279258
  3353   6 C     3354   6 C                                       1.5233122
  3265   6 C     3355   1 H                                       1.0868163
  3265   6 C     3356   1 H                                       1.0880512
  3265   6 C     3357   1 H                                       1.0879079
  3354   6 C     3358   1 H                                       1.0874201
  3354   6 C     3359   1 H                                       1.0882343
  3354   6 C     3360   1 H                                       1.0880774
  3352   6 C     3361   1 H                                       1.0917927
  3352   6 C     3362   1 H                                       1.0924299
  3349   6 C     3363   1 H                                       1.0932645
  3349   6 C     3364   1 H                                       1.0919644
  3347   6 C     3365   1 H                                       1.0960423
  3348   6 C     3366   1 H                                       1.0866269
  3348   6 C     3367   1 H                                       1.0877423
  3348   6 C     3368   1 H                                       1.0877722
  3346   6 C     3369   1 H                                       1.0932703
  3346   6 C     3370   1 H                                       1.0937736
  3343   6 C     3371   1 H                                       1.0887689
  3343   6 C     3372   1 H                                       1.0931385
  3350   6 C     3373   1 H                                       1.0950414
  3351   6 C     3374   1 H                                       1.0883482
  3351   6 C     3375   1 H                                       1.0860490
  3351   6 C     3376   1 H                                       1.0878622
  3344   6 C     3377   1 H                                       1.0932220
  3345   6 C     3378   1 H                                       1.0883126
  3345   6 C     3379   1 H                                       1.0862825
  3345   6 C     3380   1 H                                       1.0880053
  3341   6 C     3381   1 H                                       1.0932514
  3342   6 C     3382   1 H                                       1.0884739
  3342   6 C     3383   1 H                                       1.0867744
  3342   6 C     3384   1 H                                       1.0882136
  3340   6 C     3385   1 H                                       1.0911292
  3340   6 C     3386   1 H                                       1.0909601
  3338   6 C     3387   1 H                                       1.0973307
  3339   6 C     3388   1 H                                       1.0873349
  3339   6 C     3389   1 H                                       1.0865132
  3339   6 C     3390   1 H                                       1.0881854
  3337   6 C     3391   1 H                                       1.0925046
  3337   6 C     3392   1 H                                       1.0925430
  3335   6 C     3393   1 H                                       1.0922507
  3336   6 C     3394   1 H                                       1.0884255
  3336   6 C     3395   1 H                                       1.0878353
  3336   6 C     3396   1 H                                       1.0864256
  3334   6 C     3397   1 H                                       1.0918740
  3334   6 C     3398   1 H                                       1.0934770
  3332   6 C     3399   1 H                                       1.0931948
  3333   6 C     3400   1 H                                       1.0868506
  3333   6 C     3401   1 H                                       1.0878042
  3333   6 C     3402   1 H                                       1.0884081
  3331   6 C     3403   1 H                                       1.0907881
  3331   6 C     3404   1 H                                       1.0927253
  3329   6 C     3405   1 H                                       1.0935514
  3330   6 C     3406   1 H                                       1.0879298
  3330   6 C     3407   1 H                                       1.0881515
  3330   6 C     3408   1 H                                       1.0870224
  3328   6 C     3409   1 H                                       1.0905269
  3328   6 C     3410   1 H                                       1.0915209
  3326   6 C     3411   1 H                                       1.0926722
  3327   6 C     3412   1 H                                       1.0888075
  3327   6 C     3413   1 H                                       1.0877014
  3327   6 C     3414   1 H                                       1.0880227
  3325   6 C     3415   1 H                                       1.0937236
  3325   6 C     3416   1 H                                       1.0930766
  3323   6 C     3417   1 H                                       1.0941187
  3324   6 C     3418   1 H                                       1.0884867
  3324   6 C     3419   1 H                                       1.0882600
  3324   6 C     3420   1 H                                       1.0867988
  3322   6 C     3421   1 H                                       1.0920447
  3322   6 C     3422   1 H                                       1.0917591
  3320   6 C     3423   1 H                                       1.0929468
  3321   6 C     3424   1 H                                       1.0875257
  3321   6 C     3425   1 H                                       1.0876986
  3321   6 C     3426   1 H                                       1.0867282
  3319   6 C     3427   1 H                                       1.0924065
  3319   6 C     3428   1 H                                       1.0933813
  3317   6 C     3429   1 H                                       1.0933153
  3318   6 C     3430   1 H                                       1.0881604
  3318   6 C     3431   1 H                                       1.0870809
  3318   6 C     3432   1 H                                       1.0859744
  3316   6 C     3433   1 H                                       1.0916045
  3316   6 C     3434   1 H                                       1.0928759
  3314   6 C     3435   1 H                                       1.0917856
  3315   6 C     3436   1 H                                       1.0881528
  3315   6 C     3437   1 H                                       1.0886497
  3315   6 C     3438   1 H                                       1.0864428
  3313   6 C     3439   1 H                                       1.0919141
  3313   6 C     3440   1 H                                       1.0936433
  3311   6 C     3441   1 H                                       1.0926181
  3312   6 C     3442   1 H                                       1.0883486
  3312   6 C     3443   1 H                                       1.0877491
  3312   6 C     3444   1 H                                       1.0881535
  3310   6 C     3445   1 H                                       1.0908088
  3310   6 C     3446   1 H                                       1.0926047
  3308   6 C     3447   1 H                                       1.0919088
  3309   6 C     3448   1 H                                       1.0883887
  3309   6 C     3449   1 H                                       1.0880611
  3309   6 C     3450   1 H                                       1.0872148
  3307   6 C     3451   1 H                                       1.0931321
  3307   6 C     3452   1 H                                       1.0927889
  3305   6 C     3453   1 H                                       1.0927992
  3306   6 C     3454   1 H                                       1.0867823
  3306   6 C     3455   1 H                                       1.0884518
  3306   6 C     3456   1 H                                       1.0874251
  3304   6 C     3457   1 H                                       1.0924934
  3304   6 C     3458   1 H                                       1.0926298
  3302   6 C     3459   1 H                                       1.0937796
  3303   6 C     3460   1 H                                       1.0880348
  3303   6 C     3461   1 H                                       1.0865957
  3303   6 C     3462   1 H                                       1.0884684
  3301   6 C     3463   1 H                                       1.0920888
  3301   6 C     3464   1 H                                       1.0935162
  3299   6 C     3465   1 H                                       1.0932485
  3300   6 C     3466   1 H                                       1.0887170
  3300   6 C     3467   1 H                                       1.0867735
  3300   6 C     3468   1 H                                       1.0879911
  3298   6 C     3469   1 H                                       1.0906118
  3298   6 C     3470   1 H                                       1.0925289
  3296   6 C     3471   1 H                                       1.0920492
  3297   6 C     3472   1 H                                       1.0879523
  3297   6 C     3473   1 H                                       1.0876121
  3297   6 C     3474   1 H                                       1.0884541
  3295   6 C     3475   1 H                                       1.0911911
  3295   6 C     3476   1 H                                       1.0926355
  3293   6 C     3477   1 H                                       1.0954175
  3294   6 C     3478   1 H                                       1.0883667
  3294   6 C     3479   1 H                                       1.0872740
  3294   6 C     3480   1 H                                       1.0877172
  3292   6 C     3481   1 H                                       1.0899533
  3292   6 C     3482   1 H                                       1.0918728
  3290   6 C     3483   1 H                                       1.0947354
  3291   6 C     3484   1 H                                       1.0872433
  3291   6 C     3485   1 H                                       1.0882271
  3291   6 C     3486   1 H                                       1.0882204
  3289   6 C     3487   1 H                                       1.0927407
  3289   6 C     3488   1 H                                       1.0925331
  3287   6 C     3489   1 H                                       1.0930078
  3288   6 C     3490   1 H                                       1.0871494
  3288   6 C     3491   1 H                                       1.0875732
  3288   6 C     3492   1 H                                       1.0881936
  3286   6 C     3493   1 H                                       1.0940390
  3286   6 C     3494   1 H                                       1.0941387
  3284   6 C     3495   1 H                                       1.0934611
  3285   6 C     3496   1 H                                       1.0860662
  3285   6 C     3497   1 H                                       1.0883732
  3285   6 C     3498   1 H                                       1.0882844
  3283   6 C     3499   1 H                                       1.0920063
  3283   6 C     3500   1 H                                       1.0931096
  3281   6 C     3501   1 H                                       1.0918910
  3282   6 C     3502   1 H                                       1.0888459
  3282   6 C     3503   1 H                                       1.0869979
  3282   6 C     3504   1 H                                       1.0885079
  3280   6 C     3505   1 H                                       1.0906174
  3280   6 C     3506   1 H                                       1.0931314
  3278   6 C     3507   1 H                                       1.0934725
  3279   6 C     3508   1 H                                       1.0881339
  3279   6 C     3509   1 H                                       1.0879928
  3279   6 C     3510   1 H                                       1.0878348
  3277   6 C     3511   1 H                                       1.0905363
  3277   6 C     3512   1 H                                       1.0918235
  3275   6 C     3513   1 H                                       1.0928333
  3276   6 C     3514   1 H                                       1.0872310
  3276   6 C     3515   1 H                                       1.0887624
  3276   6 C     3516   1 H                                       1.0877264
  3274   6 C     3517   1 H                                       1.0933288
  3274   6 C     3518   1 H                                       1.0927387
  3272   6 C     3519   1 H                                       1.0925069
  3273   6 C     3520   1 H                                       1.0882203
  3273   6 C     3521   1 H                                       1.0867518
  3273   6 C     3522   1 H                                       1.0870129
  3271   6 C     3523   1 H                                       1.0932730
  3271   6 C     3524   1 H                                       1.0933080
  3269   6 C     3525   1 H                                       1.0921634
  3270   6 C     3526   1 H                                       1.0883199
  3270   6 C     3527   1 H                                       1.0865463
  3270   6 C     3528   1 H                                       1.0881278
  3268   6 C     3529   1 H                                       1.0906037
  3268   6 C     3530   1 H                                       1.0927625
  3266   6 C     3531   1 H                                       1.0943258
  3267   6 C     3532   1 H                                       1.0878231
  3267   6 C     3533   1 H                                       1.0879920
  3267   6 C     3534   1 H                                       1.0881291
  3353   6 C     3535   1 H                                       1.0900358
  3353   6 C     3536   1 H                                       1.0920196

 * 2 distinct bonds (by element types)

   Z      Z             #   av. dist./Å        max./Å        min./Å
   1 H    6 C        2366     1.0900506     1.0984911     1.0831391
   6 C    6 C        1115     1.5325671     1.5400988     1.5227156


optimized geometry written to: xtbopt.xyz


           -------------------------------------------------
          | TOTAL ENERGY            -3716.252619948042 Eh   |
          | GRADIENT NORM               0.000937773752 Eh/α |
          | HOMO-LUMO GAP              11.522271871006 eV   |
           -------------------------------------------------

------------------------------------------------------------------------
 * finished run on 2024/10/04 at 21:12:27.338     
------------------------------------------------------------------------
 total:
 * wall-time:     0 d,  6 h, 59 min, 48.975 sec
 *  cpu-time:     1 d, 13 h, 12 min, 36.652 sec
 * ratio c/w:     5.318 speedup
 SCF:
 * wall-time:     0 d,  0 h, 17 min, 25.398 sec
 *  cpu-time:     0 d,  1 h, 51 min, 53.444 sec
 * ratio c/w:     6.422 speedup
 ANC optimizer:
 * wall-time:     0 d,  6 h, 40 min, 55.706 sec
 *  cpu-time:     1 d, 11 h, 18 min, 58.020 sec
 * ratio c/w:     5.285 speedup

