3864
 energy: -5104.246831144710 gnorm: 0.000755390880 xtb: 6.6.1 (8d0f1dd)
C           33.50307402530289       36.54842666313925       54.71404266612750
C           33.78765437227561       37.90767405089061       54.63982203027651
C           32.72622330977775       38.79634732596847       54.53167095182040
C           31.41841051684549       38.34686838818875       54.50722148772573
C           31.14957880936021       36.99197493285349       54.57825120433715
C           32.19804181328759       36.09297838945236       54.67898066019563
C           35.20742493025813       38.41069901284460       54.72617301288217
C           35.70089356912439       38.23699583770318       56.16531375718311
C           36.13529422500154       37.69306936377964       53.73545956276053
C           37.45300845359111       38.46058324115133       53.49889293202998
C           38.61177716173795       37.49606393670632       53.45035893218386
C           38.71788973935135       36.54560950832767       52.44140498745657
C           39.77613460105331       35.65511069198186       52.41177852070194
C           40.73731658130982       35.68317202393724       53.40777646119584
C           40.62951033137635       36.60659641141260       54.43302222635356
C           39.58067679052235       37.50936620970735       54.44609136728008
C           37.37880455525574       39.32451439877993       52.23121950902117
C           38.64446074712513       40.17622088426879       52.06642605626221
C           38.76226691162555       41.16473139576436       53.20251338084193
C           39.86052214869846       41.13862677358654       54.05253101421813
C           39.96671980073155       42.03244565261227       55.10438863922224
C           38.97330630684856       42.97205864324319       55.31728627901010
C           37.88073295606280       43.01848255874153       54.46915494023542
C           37.77862320846381       42.12324089908393       53.42119442388196
C           38.70061625482877       40.94988741520912       50.74022248133630
C           38.60015456585612       40.11634298832114       49.45109732905535
C           38.87415222415196       41.02849402907133       48.28008712458620
C           37.86271394691475       41.38217151849703       47.39901550599689
C           38.11478253184953       42.22364788410795       46.32798824845887
C           39.38968528409706       42.71570298262648       46.11457905919864
C           40.40738014933623       42.37103720484414       46.98818176575499
C           40.14762406054409       41.54363014888571       48.06369343800603
C           39.54693432628256       38.90742406722623       49.44502648421265
C           39.57213365696579       38.18873023455545       48.08700848120012
C           38.18494933930499       37.89605101150298       47.57823228902406
C           37.80795303093678       38.30128769428658       46.30428732497769
C           36.54010444198820       38.03348885542968       45.81885372370304
C           35.62045790024853       37.36167818028503       46.60513738942661
C           35.98332364855381       36.95074130814759       47.87696400088856
C           37.25405772334143       37.21317558603403       48.35439622093212
C           40.42188020070151       36.91167096210268       48.18631557615729
C           40.58144916730702       36.20013533724428       46.82478266594718
C           41.98720255030928       35.66240959755621       46.70570474265454
C           42.92229297153519       36.33234757695965       45.92482289623970
C           44.22379253798033       35.87712919250333       45.80912414083853
C           44.61603499381013       34.73124625775774       46.47940320910931
C           43.70418858311530       34.06695550952946       47.28252110190158
C           42.40796963066047       34.53574808167552       47.40255375334365
C           39.50469630435462       35.11988969157987       46.62806229812326
C           39.05604759131991       34.94449617261163       45.16921989341170
C           37.84534240307610       34.04573524031835       45.14192723561938
C           36.60529299728680       34.54845003751022       44.76962320879646
C           35.48047694606372       33.74268882415527       44.76591913659455
C           35.57848912332022       32.41238239240877       45.13416678537931
C           36.80925498221838       31.89749740099304       45.50566361037056
C           37.93022184474025       32.70736941434043       45.51073876192304
C           40.19095879332436       34.40822415166758       44.28781506562616
C           39.74307543106304       34.07891101529658       42.85973570273543
C           40.77797870391145       33.30762524225959       42.07517518785457
C           42.13130415328241       33.30760196433182       42.38542763851940
C           43.02889896697918       32.56931714319507       41.63260742142477
C           42.59575085150781       31.83587922586818       40.54395215078195
C           41.25040490069286       31.83650934642425       40.21548877957979
C           40.35481277803574       32.55949525337447       40.97986167586743
C           39.30387861778203       35.32416684533513       42.06751249341603
C           40.43803603062848       36.33311360772364       41.79017229957487
C           40.04956407372394       37.69925238269452       42.30069011749226
C           40.80947381776594       38.34818831662879       43.26430529461911
C           40.41774136724347       39.57018478043544       43.78380880944147
C           39.25873714111428       40.17643257447997       43.33036025051905
C           38.50476502874839       39.55212804751675       42.35099313396983
C           38.89308624519516       38.32453866558248       41.84615759177809
C           40.77833121975357       36.37585430946702       40.29333848134359
C           42.07538161310175       37.15349795184257       40.00561110827554
C           43.27523104277252       36.29935028216164       40.33020732247767
C           43.69479322015784       35.28860373940870       39.47221324546970
C           44.82147365058614       34.53987212031596       39.75488197662806
C           45.53803714400431       34.76953740179199       40.91687768700921
C           45.10853884780504       35.74249574627408       41.80004299733221
C           43.99021536899584       36.50158945901529       41.50311803629523
C           42.07285211629104       37.63453758863900       38.54549144857964
C           43.40939628624496       38.21989566528502       38.05922090519682
C           43.28541712181819       38.57119421091039       36.59887256464913
C           43.94025931652137       37.80864226199089       35.64023434231455
C           43.82516793872315       38.10527732938208       34.29339093915398
C           43.04932215697680       39.17558497024035       33.88318282810015
C           42.39039672646662       39.94276498752341       34.82932932270564
C           42.50547073755934       39.64130644151150       36.17421148517121
C           43.83345200012398       39.42655432291700       38.90226116355483
C           45.10706995277132       40.09915684452669       38.37297248421596
C           46.20684890022997       39.07919426148769       38.19950532555215
C           46.62236992172664       38.28386990351193       39.26171052638704
C           47.63084982889036       37.35341390412242       39.09839503781159
C           48.25093487043640       37.20555754185506       37.86956773009207
C           47.85353379299175       37.99748254581995       36.80635851523161
C           46.83939400643001       38.92512786242413       36.97281504999134
C           45.61500566311853       41.22070080612460       39.29719828400297
C           44.88234689722203       42.56729787950027       39.16431583787717
C           43.42688211783043       42.46417539040448       39.53599930001431
C           42.44109296092901       42.78816872278491       38.61135541732042
C           41.09936082442788       42.65405562848898       38.92675302218236
C           40.72212875475500       42.18929167741342       40.17497524355350
C           41.69445774591549       41.87342328921208       41.10866939483876
C           43.03244550785385       42.01354173925354       40.79080011732637
C           45.62057035009406       43.60675937340578       40.02486934070757
C           45.02197081342631       45.02228978567265       39.98158182027244
C           44.91671275044521       45.52604860205556       38.56613644529080
C           43.67674476483972       45.83153743553839       38.01918584101141
C           43.56970168406119       46.32041402452971       36.72894267025167
C           44.70554423740968       46.51258294141249       35.96156456211309
C           45.94614027392309       46.20195664078923       36.49244957972103
C           46.04901667927025       45.71067833023643       37.78120916987545
C           45.89350397797296       45.95016535223893       40.84598295507947
C           45.52061589330129       47.43912962431379       40.76680042523271
C           44.12084269701263       47.68279739183998       41.27060022585547
C           43.11288447143271       48.03810262256557       40.38284632940987
C           41.81348465117875       48.22736470099149       40.81723448070995
C           41.50743574743380       48.09705268276764       42.15963065380801
C           42.50943857056883       47.78543867334474       43.06083262864215
C           43.79975282628035       47.56279199725369       42.61734813117425
C           46.55799023146716       48.26006965075320       41.54446154629353
C           46.33916544369356       49.77538353032774       41.42936502590809
C           46.53347699135249       50.23553663196505       40.00674539190256
C           45.45538700266788       50.70416194868753       39.26608781219216
C           45.61980107842756       51.12029567145692       37.95654317964993
C           46.86771616980258       51.08026149702168       37.35994882940911
C           47.94979186587454       50.61479918484951       38.08647647099275
C           47.78107405101321       50.19801833963274       39.39457979355803
C           47.27787625965416       50.50949251072935       42.39953161714426
C           47.14967668783939       52.03342640642752       42.30154268238948
C           45.72334713214990       52.48777987395252       42.48129336635971
C           44.98823588860343       52.13780746504096       43.60826287368483
C           43.69125492738064       52.58569128759930       43.77256067543687
C           43.10803258974567       53.39585206396226       42.81285205906202
C           43.82714355631246       53.74970166537626       41.68490819687165
C           45.12560106343584       53.29814958701403       41.52619445496413
C           48.02019468628497       52.76422528115320       43.33690050883162
C           49.53248545733883       52.49041456268479       43.25476841745724
C           50.20716461444564       53.34094179982371       44.30129881164044
C           50.41733149795278       54.70283750925132       44.11727951846912
C           51.04303474165140       55.46112098756480       45.09032962975197
C           51.44282270310705       54.87607563410468       46.27905120586249
C           51.20973342956530       53.52879270165668       46.48561089878178
C           50.60400782624112       52.76930332981397       45.50237589390003
C           50.07840397512959       52.73634823818460       41.84312633289474
C           51.61153159961847       52.78048078738527       41.75857705190082
H           35.20952113691055       39.47938719987403       54.48426611062562
H           36.36458758421499       36.69752688626027       54.12174365991432
H           35.61213396459194       37.56195909346265       52.78517416760017
H           37.61998258009250       39.13593925853232       54.34417520763103
H           37.25141430893804       38.68086123177164       51.36082805918576
H           36.50083137761151       39.97042894234508       52.29267358908980
H           39.50841535672145       39.50416300049861       52.10686073512401
H           37.89612050931193       41.69063354234775       50.71838092278036
H           39.64687202988995       41.49635195765227       50.72816090765590
H           37.57305137608257       39.74821768328837       49.35456104161757
H           39.23939667444449       38.20219443110605       50.21719279906659
H           40.05586509539941       38.85103212756617       47.36038528029958
H           41.40670072491498       37.19607918254783       48.56398779189156
H           39.98202472948294       36.22618291292589       48.91263991058108
H           40.44645378320748       36.95521960443262       46.04271184361772
H           39.85753773558461       34.16148727911057       47.00967814309756
H           38.61885473580589       35.39361094361819       47.20343862852867
H           38.75734221591505       35.93155695012559       44.80001669147465
H           40.98758030835677       35.15060516223107       44.27452392483735
H           40.59544747702400       33.49902710030057       44.73840724153806
H           38.85640923897626       33.43545315045326       42.93646579297720
H           41.33976032496190       36.00580905867947       42.31473186410549
H           40.88925538830591       35.35300700871132       39.92537931367789
H           39.95426594226219       36.84303994183744       39.74948925607216
H           42.08495513302312       38.03583273200201       40.65440333408013
H           41.80593216633272       36.80199211758449       37.88951148219671
H           41.29385637352549       38.39326135690138       38.43872249766460
H           44.17871965567068       37.44631961546813       38.15629275779697
H           43.02163054973752       40.15045676097628       38.92700868929853
H           44.00851592704599       39.08577606020206       39.92235363208083
H           44.88791806253631       40.53414577362774       37.39103142765525
H           45.57747503291547       40.87908607016694       40.33236148682294
H           46.66657377718942       41.39814701894883       39.05534296973175
H           44.94453428950636       42.88793960596150       38.11744635966371
H           45.63889204422201       43.26451484822960       41.06185313968805
H           46.65660417691540       43.65367680310370       39.67984159114620
H           44.01305636910043       44.99445975747349       40.40834675646224
H           45.81919396526170       45.61930139968319       41.88414985633054
H           46.93633983762223       45.84558004390111       40.53456759013057
H           45.56438961094592       47.74543217057013       39.71485680057596
H           46.53431828235789       47.98024364874087       42.59913694105474
H           47.54693555124655       48.00834110498973       41.16122895957491
H           45.30530162875736       49.99374563380938       41.72003980874761
H           47.05529354103705       50.18170507696171       43.41648558602260
H           48.30863692516144       50.22459338278316       42.18783457117827
H           47.46736741600048       52.33940550123872       41.29971811685649
H           47.85367395713843       53.83955597710015       43.22048350977079
H           47.67973649658023       52.49290602756678       44.33959252487518
H           34.30852454314692       35.83385643326402       54.80020977321063
H           31.99687932596090       35.03225952397953       54.73519627904111
H           30.12910889984386       36.63695284851990       54.55848275788038
H           30.61107549872645       39.06023095095540       54.43345395421677
H           32.91613167021052       39.85885222200771       54.46595877357664
H           37.95441034046668       36.49016536755334       51.67826647648427
H           39.84597694172137       34.92888982863367       51.61408013234995
H           41.56053130455574       34.98283290974322       53.39666505538409
H           41.36522736733519       36.61590344486337       55.22446424101692
H           39.50863556033651       38.23305373808102       55.24659483279991
H           40.63860731760600       40.40507492879814       53.89251170544372
H           40.82779973847923       41.99266173593200       55.75686338593056
H           39.04948886078997       43.66924337310621       56.13802579248895
H           37.10296876155356       43.75149430454665       54.62232793436049
H           36.92028861979767       42.17960146110186       52.76655709991702
H           36.86357481240065       40.99475488862758       47.54531212102106
H           37.30731808182601       42.48707625428273       45.65779837172975
H           39.59805615210596       43.36703867359114       45.27760139941450
H           41.40360537691973       42.75635981800919       46.82256792948368
H           40.94476658407064       41.28811558319696       48.74465953210590
H           40.56260495444885       39.22310445391729       49.68799189687196
H           38.51044173623531       38.83655124644099       45.68065184328496
H           36.27219290804582       38.35166592988000       44.82028345355403
H           34.62764090548013       37.15404293981318       46.23123926929720
H           35.27181356377459       36.42071125488447       48.49503443246797
H           37.52696014382423       36.87562043054125       49.34388949961387
H           42.62909751586236       37.23463947281445       45.40776300454862
H           44.93086276069970       36.42160247871222       45.19773926980265
H           45.62644274881305       34.36151440973335       46.38367744735881
H           44.00283114258159       33.17843592963074       47.82094712871134
H           41.72126071471171       34.01295899338817       48.05214713110545
H           36.51897037447129       35.58720783565771       44.48474647782793
H           34.52439963128558       34.15338489062562       44.47377792076050
H           34.70255419809858       31.77992200731084       45.13137787707150
H           36.89430294558785       30.85905951660961       45.79307186132065
H           38.88267412094978       32.28809876347035       45.79998254333775
H           42.50373309306212       33.87266510295698       43.22581923961941
H           44.07457114272630       32.57004864738927       41.90177112867264
H           43.29848384489194       31.26269261362246       39.95676134156685
H           40.89808290260283       31.26430606815058       39.36879504361253
H           39.30274342369768       32.53866713912704       40.72876571453101
H           38.87612988816593       34.99115873263460       41.11969855883720
H           38.50201393255465       35.81082637346277       42.62390775079900
H           41.71968018793941       37.88372637195190       43.61519728509568
H           41.01187488214943       40.05095370468239       44.54914974071927
H           38.94518015346853       41.12465286949168       43.74210948177719
H           37.60367273975729       40.02166133606827       41.97987981198467
H           38.28374668809040       37.84181748720875       41.09517835261920
H           43.14195511754420       35.08526474132099       38.56677520105693
H           45.14137627734664       33.77132957352050       39.06529973006955
H           46.42052644527468       34.18399024124420       41.13488601772603
H           45.65023890221267       35.91627804270406       42.71887293353605
H           43.67326104962807       37.26811708512905       42.19556402393887
H           44.55434555266233       36.97580422057003       35.95532364238868
H           44.34398487583804       37.50128116708806       33.56260071404612
H           42.95908199465076       39.41094826373315       32.83265278968385
H           41.78380487460212       40.78056194950647       34.51591085894234
H           41.98794860956968       40.25140353971558       36.90020616046820
H           46.14977200519108       38.38243832074674       40.22632593352981
H           47.93214105899326       36.73838314359453       39.93350588672613
H           49.03853802323994       36.47652065830735       37.74042433589977
H           48.33169127716447       37.89095222413527       35.84262604779300
H           46.52926361384237       39.53391788116016       36.13413749961229
H           42.72781697493239       43.13645418228180       37.62817859381708
H           40.34678290622139       42.90494150685834       38.19140385209577
H           39.67619735362108       42.06446094226198       40.41803036301670
H           41.40309343105778       41.50763286227837       42.08232419351313
H           43.77910118190949       41.74536097652547       41.52110858573413
H           42.78511849117842       45.68857524501909       38.61401460265162
H           42.59586406349745       46.55560953056008       36.32229037006385
H           44.62484603485336       46.90075034880203       34.95619450886200
H           46.83720133141782       46.34713335686185       35.89742839314767
H           47.02304335847293       45.47404090577645       38.18170829934639
H           43.34758858821611       48.15668666972611       39.33408029912700
H           41.04058053850918       48.48380186971048       40.10598528887643
H           40.48808928924957       48.22515693483320       42.49552567028243
H           42.28346354427715       47.70427742226490       44.11339251756380
H           44.55897290931026       47.29123574597159       43.33561076582663
H           44.47792322387733       50.74070692068975       39.72734615279055
H           44.77470615795945       51.48228205449240       37.38903888573333
H           46.99077669406287       51.41281902576103       36.33872081614645
H           48.93022141924265       50.57461446948324       37.63133169058907
H           48.64039919616459       49.84229184636315       39.94279225895025
H           45.42989368947728       51.50781805982164       44.36641676319429
H           43.12713121566124       52.30476884942777       44.64953162142859
H           42.09654951886974       53.74462670821372       42.95752389868682
H           43.38711324121528       54.37859660797047       40.92252209188506
H           45.68135955595509       53.58022285465672       40.64288751988169
H           50.43970435855669       51.71416653013488       45.67081609883631
H           51.50213383260336       53.06237117229026       47.41519925491461
H           51.93563757092574       55.47100904168919       47.03407561660951
H           51.22617883802567       56.51251358340313       44.92245852596402
H           50.09715599857705       55.18121341933858       43.20281542723994
H           35.67343749497466       37.18734703558201       56.45096374568398
H           36.72318861619907       38.59260696008034       56.26960970375288
H           35.06360751253595       38.79475384583789       56.84868614842733
H           49.71237278030742       51.44187694799449       43.51427630780532
H           49.71509189266740       51.94281565277849       41.18744999645908
H           49.69083704715246       53.68154372507401       41.45842853181513
C           52.03159168508302       52.80397121286842       40.28008090999354
C           52.26419656294375       51.63569278760868       42.49038199036211
C           52.05628466367959       50.31318961268479       42.11697760535557
C           52.71986565801648       49.28170488870798       42.75809979272542
C           53.60799992466941       49.55205982238588       43.78428479627120
C           53.80679834805640       50.86316252239344       44.17995380811425
C           53.12908833732059       51.88995192871196       43.54813905902179
H           51.37411500219323       50.08227444930806       41.31032781091107
H           52.55880151067642       48.26139547775848       42.44342210649171
H           54.13230014514545       48.74598802307543       44.27631648294159
H           54.50014019924467       51.09349918073821       44.97615916742334
H           53.27190024708931       52.90814842201957       43.88209363855105
C           53.53614211172639       53.03526241186711       40.08218378515799
H           51.75757279580684       51.85876779111322       39.80600085375390
H           51.48001221705592       53.59906880443577       39.77112510445939
C           53.93813229711893       54.40403160258914       40.54825620377465
C           53.66808827191426       55.52334406574862       39.76934006697841
C           53.97371301197514       56.79221015360025       40.22868474805973
C           54.53310893820918       56.96165745932500       41.48288166920229
C           54.81802344440609       55.85413736696121       42.26207347436584
C           54.53536773707987       54.58560937180959       41.78865190620248
H           53.21342599357472       55.39760485933724       38.79585373197875
H           53.76930859228596       57.66158569855668       39.61942395780632
H           54.74936149152468       57.95668754148179       41.83780172345845
H           55.25794932362262       55.97901874319555       43.24123809534785
H           54.77379900915199       53.72090788799891       42.38963511829002
H           51.95469515866591       53.71226091559099       42.22038255958646
H           54.09409433960714       52.27572235439183       40.63368427858470
H           53.76352680593876       52.92343290348510       39.01877365803747
C           38.67146352259175       49.01913588092711       67.75753344218454
C           37.63855819250184       48.09510019151792       67.64750322472786
C           37.70110986351813       46.94129070643819       68.41930675554161
C           38.75426311874190       46.72112309944251       69.29003065064286
C           39.77098626146586       47.65408058402858       69.39695883831813
C           39.72966720891296       48.79875698667748       68.61959723887198
C           36.44934516579068       48.34761250278235       66.75088996856502
C           35.60704760110776       49.48107402738821       67.34075468737929
C           36.90928635710422       48.65555169705634       65.32067143563539
C           35.78689990092774       48.82958170915349       64.28470004510125
C           36.42280768475456       49.27055307194930       62.98898471280204
C           37.16958570403888       48.38589960867817       62.21870027134611
C           37.74958741846453       48.79575272414976       61.03212498814563
C           37.60310905051049       50.10405071504037       60.60309587454666
C           36.87778754601862       50.99828918162624       61.37027431776966
C           36.29015327206679       50.58242747769397       62.55313325458826
C           34.96760963581702       47.54533579414463       64.10590877545586
C           33.97191882708525       47.64427671172855       62.94087167773940
C           32.88201167173606       48.63779931429362       63.24344597379349
C           32.77943846895836       49.80621278662517       62.49901083578006
C           31.79558772788541       50.73907932565265       62.77094091105837
C           30.89050110226501       50.51573894955797       63.79416190627764
C           30.97883194979131       49.35374000590092       64.54147910554356
C           31.96723173843068       48.42509989699863       64.26789107108011
C           33.41505850393791       46.25440739738990       62.60975144313536
C           32.40019585583664       46.25907904655829       61.45842885782147
C           32.86545098807491       47.04375675904878       60.25785575527221
C           34.16213009384750       46.94326535256794       59.76554810709735
C           34.55508476621603       47.65617814542270       58.64623133408266
C           33.65313034411572       48.47838987822187       57.99218547869375
C           32.36005661198634       48.58767326706318       58.47298702350989
C           31.97198501911635       47.87492886141918       59.59452871345503
C           32.09065016176074       44.80948381593025       61.04443284446126
C           30.84139685591352       44.70275016196440       60.16650175519376
C           29.58731023217986       45.13761112638942       60.88516866705191
C           28.68868596631690       45.98379955072301       60.24572881351279
C           27.50764064175132       46.36520737785415       60.85573094670224
C           27.20625496267587       45.91006812727688       62.12745820512413
C           28.08917327760080       45.06185045825892       62.77393273236257
C           29.26426086714724       44.67447692199661       62.15512180871498
C           30.62874656617830       43.27127588720578       59.63881044621060
C           31.63315073251631       42.83947673700283       58.55735610567654
C           31.49044356413661       41.36235897446107       58.28490967415435
C           30.33222748790869       40.83689040806028       57.72380533047874
C           30.21452024642123       39.48099929040111       57.47999988179163
C           31.25424138805455       38.62254271541970       57.79361559788337
C           32.41135301640424       39.13274040740190       58.35398624539162
C           32.52576690286146       40.49017932255762       58.59691475806979
C           31.45524009001789       43.65101736724641       57.26837658196887
C           32.43065105427993       43.22758425218142       56.16157792834102
C           33.84511007301925       43.15654030526147       56.68561721928804
C           34.60706588065694       42.00885111998932       56.51095028357729
C           35.89454990764657       41.92371448332565       57.01134958946906
C           36.44127478743888       42.98794031618635       57.70537133960577
C           35.69947638475342       44.14440150682513       57.87042088598281
C           34.41551609092780       44.22965099535953       57.36164302826404
C           32.38407180499602       44.20265616310747       54.97376487839119
C           30.99403262383934       44.36305785864246       54.34474427397112
C           30.44241124298577       43.05150171306188       53.84743815792439
C           29.21327883062785       42.58894808358674       54.29959879710989
C           28.67004475089119       41.41318279072474       53.81198019197302