      -----------------------------------------------------------      
     |                   =====================                   |     
     |                           x T B                           |     
     |                   =====================                   |     
     |                         S. Grimme                         |     
     |          Mulliken Center for Theoretical Chemistry        |     
     |                    University of Bonn                     |     
      -----------------------------------------------------------      

   * xtb version 6.6.1 (8d0f1dd) compiled by 'stahn@M-Bot' on 2023-08-01

   xtb is free software: you can redistribute it and/or modify it under
   the terms of the GNU Lesser General Public License as published by
   the Free Software Foundation, either version 3 of the License, or
   (at your option) any later version.
   
   xtb is distributed in the hope that it will be useful,
   but WITHOUT ANY WARRANTY; without even the implied warranty of
   MERCHANTABILITY or FITNESS FOR A PARTICULAR PURPOSE.  See the
   GNU Lesser General Public License for more details.
   
   Cite this work as:
   * C. Bannwarth, E. Caldeweyher, S. Ehlert, A. Hansen, P. Pracht,
     J. Seibert, S. Spicher, S. Grimme, WIREs Comput. Mol. Sci., 2020, 11,
     e01493. DOI: 10.1002/wcms.1493
   
   for GFN2-xTB:
   * C. Bannwarth, S. Ehlert and S. Grimme., J. Chem. Theory Comput., 2019,
     15, 1652-1671. DOI: 10.1021/acs.jctc.8b01176
   for GFN1-xTB:
   * S. Grimme, C. Bannwarth, P. Shushkov, J. Chem. Theory Comput., 2017,
     13, 1989-2009. DOI: 10.1021/acs.jctc.7b00118
   for GFN0-xTB:
   * P. Pracht, E. Caldeweyher, S. Ehlert, S. Grimme, ChemRxiv, 2019, preprint.
     DOI: 10.26434/chemrxiv.8326202.v1
   for GFN-FF:
   * S. Spicher and S. Grimme, Angew. Chem. Int. Ed., 2020, 59, 15665-15673.
     DOI: 10.1002/anie.202004239
   
   for ALPB and GBSA implicit solvation:
   * S. Ehlert, M. Stahn, S. Spicher, S. Grimme, J. Chem. Theory Comput.,
     2021, 17, 4250-4261. DOI: 10.1021/acs.jctc.1c00471
   
   for DFT-D4:
   * E. Caldeweyher, C. Bannwarth and S. Grimme, J. Chem. Phys., 2017,
     147, 034112. DOI: 10.1063/1.4993215
   * E. Caldeweyher, S. Ehlert, A. Hansen, H. Neugebauer, S. Spicher,
     C. Bannwarth and S. Grimme, J. Chem. Phys., 2019, 150, 154122.
     DOI: 10.1063/1.5090222
   * E. Caldeweyher, J.-M. Mewes, S. Ehlert and S. Grimme, Phys. Chem. Chem. Phys.
     2020, 22, 8499-8512. DOI: 10.1039/D0CP00502A
   
   for sTDA-xTB:
   * S. Grimme and C. Bannwarth, J. Chem. Phys., 2016, 145, 054103.
     DOI: 10.1063/1.4959605
   
   in the mass-spec context:
   * V. Asgeirsson, C. Bauer and S. Grimme, Chem. Sci., 2017, 8, 4879.
     DOI: 10.1039/c7sc00601b
   * J. Koopman and S. Grimme, ACS Omega 2019, 4, 12, 15120-15133.
     DOI: 10.1021/acsomega.9b02011
   
   for metadynamics refer to:
   * S. Grimme, J. Chem. Theory Comput., 2019, 155, 2847-2862
     DOI: 10.1021/acs.jctc.9b00143
   
   for SPH calculations refer to:
   * S. Spicher and S. Grimme, J. Chem. Theory Comput., 2021, 17, 1701-1714
     DOI: 10.1021/acs.jctc.0c01306
   
   with help from (in alphabetical order)
   P. Atkinson, C. Bannwarth, F. Bohle, G. Brandenburg, E. Caldeweyher
   M. Checinski, S. Dohm, S. Ehlert, S. Ehrlich, I. Gerasimov, C. Hölzer
   A. Katbashev, J. Koopman, C. Lavigne, S. Lehtola, F. März, M. Müller,
   F. Musil, H. Neugebauer, J. Pisarek, C. Plett, P. Pracht, F. Pultar,
   J. Seibert, P. Shushkov, S. Spicher, M. Stahn, M. Steiner, T. Strunk,
   J. Stückrath, T. Rose, and J. Unsleber
   
 * started run on 2024/10/04 at 21:05:47.267     

           -------------------------------------------------
          |                Calculation Setup                |
           -------------------------------------------------

          program call               : /home/abt-grimme/AK-bin/xtb input.xyz --input input.inp --opt
          hostname                   : boar075.thch.uni-bonn.de
          coordinate file            : input.xyz
          omp threads                :                     8

   ID    Z sym.   atoms
    1    6 C      1-146, 294-300, 306, 309-314, 323-468, 616-622, 628,
                  631-636, 645-790, 938-944, 950, 953-958, 967-1112,
                  1260-1266, 1272, 1275-1280, 1289-1434, 1582-1588, 1594,
                  1597-1602, 1611-1756, 1904-1910, 1916, 1919-1924,
                  1933-2078, 2226-2232, 2238, 2241-2246, 2255-2400,
                  2548-2554, 2560, 2563-2568, 2577-2722, 2870-2876, 2882,
                  2885-2890, 2899-3044, 3192-3198, 3204, 3207-3212,
                  3221-3366, 3514-3520, 3526, 3529-3534, 3543-3688,
                  3836-3842, 3848, 3851-3856
    2    1 H      147-293, 301-305, 307, 308, 315-322, 469-615, 623-627, 629,
                  630, 637-644, 791-937, 945-949, 951, 952, 959-966,
                  1113-1259, 1267-1271, 1273, 1274, 1281-1288, 1435-1581,
                  1589-1593, 1595, 1596, 1603-1610, 1757-1903, 1911-1915,
                  1917, 1918, 1925-1932, 2079-2225, 2233-2237, 2239, 2240,
                  2247-2254, 2401-2547, 2555-2559, 2561, 2562, 2569-2576,
                  2723-2869, 2877-2881, 2883, 2884, 2891-2898, 3045-3191,
                  3199-3203, 3205, 3206, 3213-3220, 3367-3513, 3521-3525,
                  3527, 3528, 3535-3542, 3689-3835, 3843-3847, 3849, 3850,
                  3857-3864

molecular fragmentation (1/2 indicates fragments):
111111111111111111111111111111111111111111111111111111111111111111111111
111111111111111111111111111111111111111111111111111111111111111111111111
111111111111111111111111111111111111111111111111111111111111111111111111
111111111111111111111111111111111111111111111111111111111111111111111111
111111111111111111111111111111111122222222222222222222222222222222222222
222222222222222222222222222222222222222222222222222222222222222222222222
222222222222222222222222222222222222222222222222222222222222222222222222
222222222222222222222222222222222222222222222222222222222222222222222222
222222222222222222222222222222222222222222222222222222222222222222222222
222222222222222222222222222222222222222222222222222222222222222222222222
222222222222222222222222222222222222222222222222222222222222222222222222
222222222222222222222222222222222222222222222222222222222222222222222222
222222222222222222222222222222222222222222222222222222222222222222222222
222222222222222222222222222222222222222222222222222222222222222222222222
222222222222222222222222222222222222222222222222222222222222222222222222
222222222222222222222222222222222222222222222222222222222222222222222222
222222222222222222222222222222222222222222222222222222222222222222222222
222222222222222222222222222222222222222222222222222222222222222222222222
222222222222222222222222222222222222222222222222222222222222222222222222
222222222222222222222222222222222222222222222222222222222222222222222222
222222222222222222222222222222222222222222222222222222222222222222222222
222222222222222222222222222222222222222222222222222222222222222222222222
222222222222222222222222222222222222222222222222222222222222222222222222
222222222222222222222222222222222222222222222222222222222222222222222222
222222222222222222222222222222222222222222222222222222222222222222222222
222222222222222222222222222222222222222222222222222222222222222222222222
222222222222222222222222222222222222222222222222222222222222222222222222
222222222222222222222222222222222222222222222222222222222222222222222222
222222222222222222222222222222222222222222222222222222222222222222222222
222222222222222222222222222222222222222222222222222222222222222222222222
222222222222222222222222222222222222222222222222222222222222222222222222
222222222222222222222222222222222222222222222222222222222222222222222222
222222222222222222222222222222222222222222222222222222222222222222222222
222222222222222222222222222222222222222222222222222222222222222222222222
222222222222222222222222222222222222222222222222222222222222222222222222
222222222222222222222222222222222222222222222222222222222222222222222222
222222222222222222222222222222222222222222222222222222222222222222222222
222222222222222222222222222222222222222222222222222222222222222222222222
222222222222222222222222222222222222222222222222222222222222222222222222
222222222222222222222222222222222222222222222222222222222222222222222222
222222222222222222222222222222222222222222222222222222222222222222222222
222222222222222222222222222222222222222222222222222222222222222222222222
222222222222222222222222222222222222222222222222222222222222222222222222
222222222222222222222222222222222222222222222222222222222222222222222222
222222222222222222222222222222222222222222222222222222222222222222222222
222222222222222222222222222222222222222222222222222222222222222222222222
222222222222222222222222222222222222222222222222222222222222222222222222
222222222222222222222222222222222222222222222222222222222222222222222222
222222222222222222222222222222222222222222222222222222222222222222222222
222222222222222222222222222222222222222222222222222222222222222222222222
222222222222222222222222222222222222222222222222222222222222222222222222
222222222222222222222222222222222222222222222222222222222222222222222222
222222222222222222222222222222222222222222222222222222222222222222222222
222222222222222222222222222222222222222222222222
# atoms in fragment 1/2:   322  3542
 fragment masses (1/2) :     2085.00    22935.05
CMA distance (Bohr)    :  23.707
constraining FC (au)   :  0.0500

           -------------------------------------------------
          |                 G F N 2 - x T B                 |
           -------------------------------------------------

        Reference                      10.1021/acs.jctc.8b01176
      * Hamiltonian:
        H0-scaling (s, p, d)           1.850000    2.230000    2.230000
        zeta-weighting                 0.500000
      * Dispersion:
        s8                             2.700000
        a1                             0.520000
        a2                             5.000000
        s9                             5.000000
      * Repulsion:
        kExp                           1.500000    1.000000
        rExp                           1.000000
      * Coulomb:
        alpha                          2.000000
        third order                    shell-resolved
        anisotropic                    true
        a3                             3.000000
        a5                             4.000000
        cn-shift                       1.200000
        cn-exp                         4.000000
        max-rad                        5.000000


          ...................................................
          :                      SETUP                      :
          :.................................................:
          :  # basis functions                9624          :
          :  # atomic orbitals                9624          :
          :  # shells                         5784          :
          :  # electrons                      9624          :
          :  max. iterations                   250          :
          :  Hamiltonian                  GFN2-xTB          :
          :  restarted?                      false          :
          :  GBSA solvation                  false          :
          :  PC potential                    false          :
          :  electronic temp.          300.0000000     K    :
          :  accuracy                    1.0000000          :
          :  -> integral cutoff          0.2500000E+02      :
          :  -> integral neglect         0.1000000E-07      :
          :  -> SCF convergence          0.1000000E-05 Eh   :
          :  -> wf. convergence          0.1000000E-03 e    :
          :  Broyden damping             0.4000000          :
          ...................................................

 iter      E             dE          RMSdq      gap      omega  full diag
   1  -5195.6812291 -0.519568E+04  0.370E+00    4.29       0.0  T
   2  -5198.2768787 -0.259565E+01  0.218E+00    4.23       1.0  T
   3  -5198.1943469  0.825318E-01  0.497E-01    4.00       1.0  T
   4  -5198.4007134 -0.206367E+00  0.245E-01    3.88       1.0  T
   5  -5198.5637543 -0.163041E+00  0.473E-02    3.97       1.0  T
   6  -5198.5663294 -0.257510E-02  0.293E-02    3.95       1.0  T
   7  -5198.5677104 -0.138099E-02  0.112E-02    3.97       1.0  T
   8  -5198.5680015 -0.291096E-03  0.291E-03    3.96       1.0  T
   9  -5198.5680182 -0.167042E-04  0.125E-03    3.96       1.3  T
  10  -5198.5680198 -0.159359E-05  0.553E-04    3.96       2.9  T
  11  -5198.5680202 -0.333407E-06  0.292E-04    3.96       5.5  T
  12  -5198.5680203 -0.180430E-06  0.100E-04    3.96      16.1  T

   *** convergence criteria satisfied after 12 iterations ***

         #    Occupation            Energy/Eh            Energy/eV
      -------------------------------------------------------------
         1        2.0000           -0.6534974             -17.7826
       ...           ...                  ...                  ...
      4806        2.0000           -0.3820520             -10.3962
      4807        2.0000           -0.3809155             -10.3652
      4808        2.0000           -0.3806910             -10.3591
      4809        2.0000           -0.3798076             -10.3351
      4810        2.0000           -0.3794596             -10.3256
      4811        2.0000           -0.3793947             -10.3239
      4812        2.0000           -0.3761260             -10.2349 (HOMO)
      4813                         -0.2305033              -6.2723 (LUMO)
      4814                         -0.2298350              -6.2541
      4815                         -0.2295683              -6.2469
      4816                         -0.2292819              -6.2391
      4817                         -0.2292577              -6.2384
       ...                                ...                  ...
      9624                          0.6835543              18.6005
      -------------------------------------------------------------
                  HL-Gap            0.1456228 Eh            3.9626 eV
             Fermi-level           -0.3033147 Eh           -8.2536 eV

 SCC (total)                   0 d,  0 h, 47 min, 38.386 sec
 SCC setup                      ...        0 min,  0.716 sec (  0.025%)
 Dispersion                     ...        0 min,  6.880 sec (  0.241%)
 classical contributions        ...        0 min,  0.151 sec (  0.005%)
 integral evaluation            ...        0 min, 11.592 sec (  0.406%)
 iterations                     ...       42 min,  8.124 sec ( 88.446%)
 molecular gradient             ...        4 min, 44.064 sec (  9.938%)
 printout                       ...        0 min, 26.859 sec (  0.940%)

         :::::::::::::::::::::::::::::::::::::::::::::::::::::
         ::                     SUMMARY                     ::
         :::::::::::::::::::::::::::::::::::::::::::::::::::::
         :: total energy           -5104.074345858091 Eh    ::
         :: gradient norm              0.025769857169 Eh/a0 ::
         :: HOMO-LUMO gap              3.962597454955 eV    ::
         ::.................................................::
         :: SCC energy             -5198.568020339903 Eh    ::
         :: -> isotropic ES            0.266654213368 Eh    ::
         :: -> anisotropic ES          0.778675836105 Eh    ::
         :: -> anisotropic XC          3.254722869651 Eh    ::
         :: -> dispersion             -6.988570045415 Eh    ::
         :: repulsion energy          93.376468636841 Eh    ::
         :: add. restraining           0.000000000000 Eh    ::
         :: total charge              -0.000000000032 e     ::
         :::::::::::::::::::::::::::::::::::::::::::::::::::::

      ----------------------------------------------------------- 
     |              Fast Inertial Relaxation Engine              |
      ----------------------------------------------------------- 

          ...................................................
          :                      SETUP                      :
          :.................................................:
          :   energy convergence        0.5000000E-05 Eh    :
          :   grad. convergence         0.1000000E-02 Eh/a0 :
          :   optimization log               true           :
          :   writing optlog all                1     steps :
          :   Hessian reset                    20     steps :
          :   time step scaling                 5     steps :
          :   maximium step len.        1.0000000     a0    :
          :   initial time step         0.2500000     fs    :
          :   maximum time step         1.2500000     fs    :
          :   power reset thr           0.0000000     au    :
          :   alpha parameter           0.1000000           :
          :   BFGS update                   false           :
          :   preconditioning               false           :
          ...................................................

........................................................................
.............................. CYCLE    1 ..............................
........................................................................

 iter      E             dE          RMSdq      gap      omega  full diag
   1  -5198.5691152 -0.519857E+04  0.355E-04    3.96       0.0  T
   2  -5198.5691152 -0.185728E-07  0.218E-04    3.96       7.4  T
   3  -5198.5691152  0.369846E-07  0.928E-05    3.96      17.3  T
     SCC iter.                  ...       10 min, 34.902 sec
     gradient                   ...        4 min, 43.765 sec
 * total energy  : -5104.0744212 Eh     change    :  -0.7538428E-04 Eh
   gradient norm :     0.0242169 Eh/a0  converged?    E=F G=F D=F
   time step     :     0.2500000 fs     power     :   0.3878898E-08
   step length   :     0.0030202 a0     speed     :   0.2922179E-03

........................................................................
.............................. CYCLE    2 ..............................
........................................................................

 iter      E             dE          RMSdq      gap      omega  full diag
   1  -5198.5707426 -0.519857E+04  0.522E-04    3.96       0.0  T
   2  -5198.5707426 -0.357459E-07  0.319E-04    3.96       5.0  T
   3  -5198.5707426  0.488126E-07  0.111E-04    3.96      14.5  T
     SCC iter.                  ...       10 min, 35.806 sec
     gradient                   ...        4 min, 43.744 sec
 * total energy  : -5104.0745236 Eh     change    :  -0.1023620E-03 Eh
   gradient norm :     0.0220217 Eh/a0  converged?    E=F G=F D=F
   time step     :     0.2500000 fs     power     :   0.5166064E-08
   step length   :     0.0044384 a0     speed     :   0.4294382E-03

........................................................................
.............................. CYCLE    3 ..............................
........................................................................

 iter      E             dE          RMSdq      gap      omega  full diag
   1  -5198.5728973 -0.519857E+04  0.672E-04    3.96       0.0  T
   2  -5198.5728973 -0.549981E-07  0.411E-04    3.96       3.9  T
   3  -5198.5728973  0.767695E-07  0.135E-04    3.96      11.9  T
     SCC iter.                  ...       10 min, 37.710 sec
     gradient                   ...        4 min, 45.375 sec
 * total energy  : -5104.0746412 Eh     change    :  -0.1176096E-03 Eh
   gradient norm :     0.0194015 Eh/a0  converged?    E=F G=F D=F
   time step     :     0.2500000 fs     power     :   0.5813592E-08
   step length   :     0.0057237 a0     speed     :   0.5538033E-03

........................................................................
.............................. CYCLE    4 ..............................
........................................................................

 iter      E             dE          RMSdq      gap      omega  full diag
   1  -5198.5755773 -0.519858E+04  0.803E-04    3.96       0.0  T
   2  -5198.5755774 -0.730452E-07  0.492E-04    3.96       3.3  T
   3  -5198.5755773  0.119385E-06  0.162E-04    3.96       9.9  T
     SCC iter.                  ...       10 min, 37.230 sec
     gradient                   ...        4 min, 47.707 sec
 * total energy  : -5104.0747619 Eh     change    :  -0.1206383E-03 Eh
   gradient norm :     0.0166386 Eh/a0  converged?    E=F G=F D=F
   time step     :     0.2500000 fs     power     :   0.5821140E-08
   step length   :     0.0068431 a0     speed     :   0.6621031E-03

........................................................................
.............................. CYCLE    5 ..............................
........................................................................

 iter      E             dE          RMSdq      gap      omega  full diag
   1  -5198.5787825 -0.519858E+04  0.911E-04    3.96       0.0  T
   2  -5198.5787826 -0.866103E-07  0.561E-04    3.97       2.9  T
   3  -5198.5787824  0.183019E-06  0.192E-04    3.97       8.4  T
     SCC iter.                  ...       10 min, 35.884 sec
     gradient                   ...        4 min, 45.559 sec
 * total energy  : -5104.0748749 Eh     change    :  -0.1130010E-03 Eh
   gradient norm :     0.0140850 Eh/a0  converged?    E=F G=F D=F
   time step     :     0.2500000 fs     power     :   0.5303211E-08
   step length   :     0.0077698 a0     speed     :   0.7517739E-03

........................................................................
.............................. CYCLE    6 ..............................
........................................................................

 iter      E             dE          RMSdq      gap      omega  full diag
   1  -5198.5829245 -0.519858E+04  0.110E-03    3.97       0.0  T
   2  -5198.5829246 -0.115493E-06  0.683E-04    3.97       2.4  T
   3  -5198.5829243  0.367430E-06  0.259E-04    3.97       6.2  T
     SCC iter.                  ...       10 min, 37.996 sec
     gradient                   ...        4 min, 43.735 sec
 * total energy  : -5104.0749821 Eh     change    :  -0.1072311E-03 Eh
   gradient norm :     0.0119102 Eh/a0  converged?    E=F G=F D=F
   time step     :     0.2750000 fs     power     :   0.4346796E-08
   step length   :     0.0094146 a0     speed     :   0.8281060E-03

........................................................................
.............................. CYCLE    7 ..............................
........................................................................

 iter      E             dE          RMSdq      gap      omega  full diag
   1  -5198.5881536 -0.519859E+04  0.129E-03    3.97       0.0  T
   2  -5198.5881537 -0.140980E-06  0.806E-04    3.97       2.0  T
   3  -5198.5881530  0.673109E-06  0.341E-04    3.97       4.7  T
     SCC iter.                  ...       10 min, 36.584 sec
     gradient                   ...        4 min, 45.397 sec
 * total energy  : -5104.0750743 Eh     change    :  -0.9220885E-04 Eh
   gradient norm :     0.0105500 Eh/a0  converged?    E=F G=F D=F
   time step     :     0.3025000 fs     power     :   0.3151410E-08
   step length   :     0.0110429 a0     speed     :   0.8830269E-03

........................................................................
.............................. CYCLE    8 ..............................
........................................................................

 iter      E             dE          RMSdq      gap      omega  full diag
   1  -5198.5945075 -0.519859E+04  0.145E-03    3.97       0.0  T
   2  -5198.5945076 -0.165087E-06  0.917E-04    3.97       1.8  T
   3  -5198.5945066  0.105760E-05  0.426E-04    3.97       3.8  T
   4  -5198.5945078 -0.121692E-05  0.499E-05    3.97      32.2  T
   5  -5198.5945078 -0.485670E-08  0.241E-05    3.97      66.7  T
     SCC iter.                  ...       17 min, 38.489 sec
     gradient                   ...        4 min, 46.077 sec
 * total energy  : -5104.0751474 Eh     change    :  -0.7311080E-04 Eh
   gradient norm :     0.0099327 Eh/a0  converged?    E=F G=F D=F
   time step     :     0.3327500 fs     power     :   0.1974040E-08
   step length   :     0.0124964 a0     speed     :   0.9084117E-03

........................................................................
.............................. CYCLE    9 ..............................
........................................................................

 iter      E             dE          RMSdq      gap      omega  full diag
   1  -5198.6017562 -0.519860E+04  0.156E-03    3.97       0.0  T
   2  -5198.6017564 -0.206519E-06  0.998E-04    3.97       1.6  T
   3  -5198.6017550  0.139589E-05  0.506E-04    3.97       3.2  T
   4  -5198.6017567 -0.165967E-05  0.526E-05    3.97      30.6  T
   5  -5198.6017567 -0.630007E-08  0.257E-05    3.97      62.6  T
     SCC iter.                  ...       17 min, 38.812 sec
     gradient                   ...        4 min, 45.744 sec
 * total energy  : -5104.0751986 Eh     change    :  -0.5120435E-04 Eh
   gradient norm :     0.0095907 Eh/a0  converged?    E=F G=F D=F
   time step     :     0.3660250 fs     power     :   0.9977666E-09
   step length   :     0.0136487 a0     speed     :   0.9019742E-03

........................................................................
.............................. CYCLE   10 ..............................
........................................................................

 iter      E             dE          RMSdq      gap      omega  full diag
   1  -5198.6094293 -0.519861E+04  0.164E-03    3.97       0.0  T
   2  -5198.6094295 -0.228427E-06  0.104E-03    3.97       1.5  T
   3  -5198.6094281  0.142375E-05  0.528E-04    3.97       3.0  T
   4  -5198.6094298 -0.171752E-05  0.576E-05    3.97      27.9  T
   5  -5198.6094298 -0.107066E-07  0.245E-05    3.97      65.7  T
   6  -5198.6094298 -0.591172E-09  0.125E-05    3.97     128.7  T
     SCC iter.                  ...       21 min,  8.713 sec
     gradient                   ...        4 min, 48.201 sec
 * total energy  : -5104.0752294 Eh     change    :  -0.3076565E-04 Eh
   gradient norm :     0.0093253 Eh/a0  converged?    E=F G=F D=F
   time step     :     0.4026275 fs     power     :   0.2089594E-09
   step length   :     0.0144617 a0     speed     :   0.8688197E-03

........................................................................
.............................. CYCLE   11 ..............................
........................................................................

 iter      E             dE          RMSdq      gap      omega  full diag
   1  -5198.6167630 -0.519862E+04  0.166E-03    3.97       0.0  T
   2  -5198.6167632 -0.240857E-06  0.103E-03    3.97       1.6  T
   3  -5198.6167620  0.125215E-05  0.509E-04    3.97       3.2  T
   4  -5198.6167635 -0.150096E-05  0.627E-05    3.97      25.7  T
   5  -5198.6167635 -0.148611E-07  0.237E-05    3.97      67.9  T
   6  -5198.6167635 -0.673936E-09  0.121E-05    3.97     132.6  T
     SCC iter.                  ...       21 min, 10.783 sec
     gradient                   ...        4 min, 45.177 sec
 * total energy  : -5104.0752413 Eh     change    :  -0.1192250E-04 Eh
   gradient norm :     0.0095713 Eh/a0  converged?    E=F G=F D=F
   time step     :     0.4428903 fs     power     :  -0.3786570E-09
   step length   :     0.0148998 a0     speed     :   0.8137656E-03

........................................................................
.............................. CYCLE   12 ..............................
........................................................................
 * reset velocities

 iter      E             dE          RMSdq      gap      omega  full diag
   1  -5198.6166120 -0.519862E+04  0.401E-05    3.97       0.0  T
   2  -5198.6166120 -0.392902E-09  0.296E-05    3.97      54.4  T
   3  -5198.6166120  0.401997E-09  0.134E-05    3.97     119.9  T
     SCC iter.                  ...       10 min, 37.620 sec
     gradient                   ...        4 min, 44.189 sec
 * total energy  : -5104.0752455 Eh     change    :  -0.4162346E-05 Eh
   gradient norm :     0.0093820 Eh/a0  converged?    E=T G=F D=T
   time step     :     0.2214451 fs     power     :   0.2473843E-09
   step length   :     0.0004401 a0     speed     :   0.4806852E-04

........................................................................
.............................. CYCLE   13 ..............................
........................................................................

 iter      E             dE          RMSdq      gap      omega  full diag
   1  -5198.6163095 -0.519862E+04  0.814E-05    3.97       0.0  T
   2  -5198.6163095 -0.165528E-08  0.577E-05    3.97      27.9  T
   3  -5198.6163095  0.266027E-08  0.253E-05    3.97      63.7  T
     SCC iter.                  ...       10 min, 35.375 sec
     gradient                   ...        4 min, 43.679 sec
 * total energy  : -5104.0752535 Eh     change    :  -0.8011297E-05 Eh
   gradient norm :     0.0090110 Eh/a0  converged?    E=F G=F D=T
   time step     :     0.2214451 fs     power     :   0.4703668E-09
   step length   :     0.0008714 a0     speed     :   0.9518512E-04

........................................................................
.............................. CYCLE   14 ..............................
........................................................................

 iter      E             dE          RMSdq      gap      omega  full diag
   1  -5198.6158575 -0.519862E+04  0.121E-04    3.97       0.0  T
   2  -5198.6158575 -0.326327E-08  0.846E-05    3.97      19.0  T
   3  -5198.6158575  0.635828E-08  0.365E-05    3.97      44.0  T
     SCC iter.                  ...       10 min, 38.207 sec
     gradient                   ...        4 min, 45.915 sec
 * total energy  : -5104.0752647 Eh     change    :  -0.1124868E-04 Eh
   gradient norm :     0.0084740 Eh/a0  converged?    E=F G=F D=F
   time step     :     0.2214451 fs     power     :   0.6519905E-09
   step length   :     0.0012856 a0     speed     :   0.1404287E-03

........................................................................
.............................. CYCLE   15 ..............................
........................................................................

 iter      E             dE          RMSdq      gap      omega  full diag
   1  -5198.6152579 -0.519862E+04  0.157E-04    3.97       0.0  T
   2  -5198.6152580 -0.531600E-08  0.110E-04    3.97      14.7  T
   3  -5198.6152579  0.106320E-07  0.471E-05    3.97      34.2  T
     SCC iter.                  ...       10 min, 37.866 sec
     gradient                   ...        4 min, 44.335 sec
 * total energy  : -5104.0752783 Eh     change    :  -0.1357388E-04 Eh
   gradient norm :     0.0077956 Eh/a0  converged?    E=F G=F D=F
   time step     :     0.2214451 fs     power     :   0.7795560E-09
   step length   :     0.0016748 a0     speed     :   0.1829377E-03

........................................................................
.............................. CYCLE   16 ..............................
........................................................................

 iter      E             dE          RMSdq      gap      omega  full diag
   1  -5198.6145130 -0.519861E+04  0.190E-04    3.97       0.0  T
   2  -5198.6145130 -0.761975E-08  0.132E-04    3.97      12.2  T
   3  -5198.6145130  0.163345E-07  0.567E-05    3.97      28.4  T
     SCC iter.                  ...       10 min, 38.031 sec
     gradient                   ...        4 min, 46.016 sec
 * total energy  : -5104.0752932 Eh     change    :  -0.1492610E-04 Eh
   gradient norm :     0.0070097 Eh/a0  converged?    E=F G=F D=F
   time step     :     0.2214451 fs     power     :   0.8460015E-09
   step length   :     0.0020318 a0     speed     :   0.2219372E-03

........................................................................
.............................. CYCLE   17 ..............................
........................................................................

 iter      E             dE          RMSdq      gap      omega  full diag
   1  -5198.6136249 -0.519861E+04  0.218E-04    3.97       0.0  T
   2  -5198.6136249 -0.967339E-08  0.152E-04    3.97      10.6  T
   3  -5198.6136249  0.224527E-07  0.653E-05    3.97      24.6  T
     SCC iter.                  ...       10 min, 37.629 sec
     gradient                   ...        4 min, 46.228 sec
 * total energy  : -5104.0753085 Eh     change    :  -0.1528503E-04 Eh
   gradient norm :     0.0061613 Eh/a0  converged?    E=F G=F D=F
   time step     :     0.2214451 fs     power     :   0.8507249E-09
   step length   :     0.0023505 a0     speed     :   0.2567525E-03

........................................................................
.............................. CYCLE   18 ..............................
........................................................................

 iter      E             dE          RMSdq      gap      omega  full diag
   1  -5198.6124793 -0.519861E+04  0.266E-04    3.97       0.0  T
   2  -5198.6124793 -0.139316E-07  0.187E-04    3.97       8.6  T
   3  -5198.6124793  0.359923E-07  0.813E-05    3.97      19.8  T
     SCC iter.                  ...       10 min, 35.722 sec
     gradient                   ...        4 min, 45.647 sec
 * total energy  : -5104.0753246 Eh     change    :  -0.1611218E-04 Eh
   gradient norm :     0.0052208 Eh/a0  converged?    E=F G=F D=F
   time step     :     0.2435896 fs     power     :   0.7913098E-09
   step length   :     0.0029189 a0     speed     :   0.2898540E-03

........................................................................
.............................. CYCLE   19 ..............................
........................................................................

 iter      E             dE          RMSdq      gap      omega  full diag
   1  -5198.6110234 -0.519861E+04  0.317E-04    3.97       0.0  T
   2  -5198.6110234 -0.186810E-07  0.223E-04    3.97       7.2  T
   3  -5198.6110234  0.552163E-07  0.980E-05    3.97      16.4  T
     SCC iter.                  ...       10 min, 38.452 sec
     gradient                   ...        4 min, 45.172 sec
 * total energy  : -5104.0753403 Eh     change    :  -0.1563426E-04 Eh
   gradient norm :     0.0042983 Eh/a0  converged?    E=F G=F D=F
   time step     :     0.2679486 fs     power     :   0.6654419E-09
   step length   :     0.0035367 a0     speed     :   0.3192758E-03

........................................................................
.............................. CYCLE   20 ..............................
........................................................................

 iter      E             dE          RMSdq      gap      omega  full diag
   1  -5198.6092055 -0.519861E+04  0.364E-04    3.97       0.0  T
   2  -5198.6092055 -0.222162E-07  0.256E-04    3.97       6.3  T
   3  -5198.6092055  0.800073E-07  0.115E-04    3.97      14.0  T
     SCC iter.                  ...       10 min, 37.167 sec
     gradient                   ...        4 min, 43.298 sec
 * total energy  : -5104.0753538 Eh     change    :  -0.1358876E-04 Eh
   gradient norm :     0.0036149 Eh/a0  converged?    E=F G=F D=F
   time step     :     0.2947435 fs     power     :   0.4886140E-09
   step length   :     0.0041697 a0     speed     :   0.3421928E-03
 * RMSD in coord.:     0.0014609 a0     energy gain  -0.1007981E-02 Eh

........................................................................
.............................. CYCLE   21 ..............................
........................................................................

 iter      E             dE          RMSdq      gap      omega  full diag
   1  -5198.6075376 -0.519861E+04  0.308E-04    3.97       0.0  T
   2  -5198.6075376 -0.131949E-07  0.213E-04    3.97       7.5  T
   3  -5198.6075375  0.595355E-07  0.963E-05    3.97      16.7  T
     SCC iter.                  ...       10 min, 36.763 sec
     gradient                   ...        4 min, 45.415 sec
 * total energy  : -5104.0753623 Eh     change    :  -0.8477373E-05 Eh
   gradient norm :     0.0034160 Eh/a0  converged?    E=F G=F D=F
   time step     :     0.2500000 fs     power     :   0.3523983E-09
   step length   :     0.0036116 a0     speed     :   0.3494396E-03

........................................................................
.............................. CYCLE   22 ..............................
........................................................................

 iter      E             dE          RMSdq      gap      omega  full diag
   1  -5198.6058077 -0.519861E+04  0.293E-04    3.97       0.0  T
   2  -5198.6058078 -0.100263E-07  0.202E-04    3.97       8.0  T
   3  -5198.6058077  0.572509E-07  0.935E-05    3.97      17.2  T
     SCC iter.                  ...       10 min, 36.090 sec
     gradient                   ...        4 min, 44.036 sec
 * total energy  : -5104.0753687 Eh     change    :  -0.6364020E-05 Eh
   gradient norm :     0.0034858 Eh/a0  converged?    E=F G=F D=F
   time step     :     0.2500000 fs     power     :   0.2581226E-09
   step length   :     0.0035839 a0     speed     :   0.3467586E-03

........................................................................
.............................. CYCLE   23 ..............................
........................................................................

 iter      E             dE          RMSdq      gap      omega  full diag
   1  -5198.6040938 -0.519860E+04  0.276E-04    3.97       0.0  T
   2  -5198.6040938 -0.696127E-08  0.185E-04    3.97       8.7  T
   3  -5198.6040938  0.452019E-07  0.835E-05    3.97      19.3  T
     SCC iter.                  ...       10 min, 37.394 sec
     gradient                   ...        4 min, 47.642 sec
 * total energy  : -5104.0753738 Eh     change    :  -0.5133866E-05 Eh
   gradient norm :     0.0036605 Eh/a0  converged?    E=F G=F D=F
   time step     :     0.2500000 fs     power     :   0.2142216E-09
   step length   :     0.0034833 a0     speed     :   0.3370260E-03

........................................................................
.............................. CYCLE   24 ..............................
........................................................................

 iter      E             dE          RMSdq      gap      omega  full diag
   1  -5198.6024670 -0.519860E+04  0.260E-04    3.97       0.0  T
   2  -5198.6024670 -0.453656E-08  0.168E-04    3.97       9.6  T
   3  -5198.6024670  0.257114E-07  0.646E-05    3.97      24.9  T
     SCC iter.                  ...       10 min, 36.614 sec
     gradient                   ...        4 min, 48.684 sec
 * total energy  : -5104.0753787 Eh     change    :  -0.4858956E-05 Eh
   gradient norm :     0.0038145 Eh/a0  converged?    E=T G=F D=F
   time step     :     0.2500000 fs     power     :   0.2130605E-09
   step length   :     0.0033558 a0     speed     :   0.3246963E-03

........................................................................
.............................. CYCLE   25 ..............................
........................................................................

 iter      E             dE          RMSdq      gap      omega  full diag
   1  -5198.6009823 -0.519860E+04  0.249E-04    3.97       0.0  T
   2  -5198.6009823 -0.308592E-08  0.154E-04    3.97      10.5  T
   3  -5198.6009823  0.730779E-08  0.378E-05    3.97      42.6  T
     SCC iter.                  ...       10 min, 36.055 sec
     gradient                   ...        4 min, 45.921 sec
 * total energy  : -5104.0753838 Eh     change    :  -0.5115404E-05 Eh
   gradient norm :     0.0038858 Eh/a0  converged?    E=F G=F D=F
   time step     :     0.2500000 fs     power     :   0.2392684E-09
   step length   :     0.0032394 a0     speed     :   0.3134285E-03

........................................................................
.............................. CYCLE   26 ..............................
........................................................................

 iter      E             dE          RMSdq      gap      omega  full diag
   1  -5198.5995503 -0.519860E+04  0.270E-04    3.97       0.0  T
   2  -5198.5995503 -0.292039E-08  0.160E-04    3.97      10.0  T
   3  -5198.5995503  0.175896E-08  0.252E-05    3.97      63.8  T
     SCC iter.                  ...       10 min, 36.237 sec
     gradient                   ...        4 min, 44.746 sec
 * total energy  : -5104.0753901 Eh     change    :  -0.6306214E-05 Eh
   gradient norm :     0.0038477 Eh/a0  converged?    E=F G=F D=F
   time step     :     0.2750000 fs     power     :   0.2762358E-09
   step length   :     0.0034836 a0     speed     :   0.3064148E-03

........................................................................
.............................. CYCLE   27 ..............................
........................................................................

 iter      E             dE          RMSdq      gap      omega  full diag
   1  -5198.5982392 -0.519860E+04  0.297E-04    3.97       0.0  T
   2  -5198.5982392 -0.316049E-08  0.175E-04    3.97       9.2  T
   3  -5198.5982392  0.372620E-08  0.320E-05    3.97      50.3  T
     SCC iter.                  ...       10 min, 35.262 sec
     gradient                   ...        4 min, 48.175 sec
 * total energy  : -5104.0753978 Eh     change    :  -0.7748208E-05 Eh
   gradient norm :     0.0036843 Eh/a0  converged?    E=F G=F D=F
   time step     :     0.3025000 fs     power     :   0.3107014E-09
   step length   :     0.0038100 a0     speed     :   0.3046596E-03

........................................................................
.............................. CYCLE   28 ..............................
........................................................................

 iter      E             dE          RMSdq      gap      omega  full diag
   1  -5198.5971311 -0.519860E+04  0.337E-04    3.97       0.0  T
   2  -5198.5971311 -0.413729E-08  0.199E-04    3.97       8.1  T
   3  -5198.5971311  0.158452E-07  0.575E-05    3.97      28.0  T
     SCC iter.                  ...       10 min, 37.616 sec
     gradient                   ...        4 min, 48.261 sec
 * total energy  : -5104.0754070 Eh     change    :  -0.9107101E-05 Eh
   gradient norm :     0.0034061 Eh/a0  converged?    E=F G=F D=F
   time step     :     0.3327500 fs     power     :   0.3305544E-09
   step length   :     0.0042362 a0     speed     :   0.3079465E-03

........................................................................
.............................. CYCLE   29 ..............................
........................................................................

 iter      E             dE          RMSdq      gap      omega  full diag
   1  -5198.5963238 -0.519860E+04  0.384E-04    3.97       0.0  T
   2  -5198.5963238 -0.629007E-08  0.230E-04    3.97       7.0  T
   3  -5198.5963238  0.436103E-07  0.921E-05    3.97      17.5  T
     SCC iter.                  ...       10 min, 39.727 sec
     gradient                   ...        4 min, 47.210 sec
 * total energy  : -5104.0754170 Eh     change    :  -0.1005904E-04 Eh
   gradient norm :     0.0030548 Eh/a0  converged?    E=F G=F D=F
   time step     :     0.3660250 fs     power     :   0.3268108E-09
   step length   :     0.0047679 a0     speed     :   0.3150910E-03

........................................................................
.............................. CYCLE   30 ..............................
........................................................................

 iter      E             dE          RMSdq      gap      omega  full diag
   1  -5198.5959263 -0.519860E+04  0.434E-04    3.97       0.0  T
   2  -5198.5959263 -0.924592E-08  0.263E-04    3.97       6.1  T
   3  -5198.5959262  0.781874E-07  0.122E-04    3.97      13.2  T
     SCC iter.                  ...       10 min, 36.167 sec
     gradient                   ...        4 min, 45.650 sec
 * total energy  : -5104.0754274 Eh     change    :  -0.1040282E-04 Eh
   gradient norm :     0.0027166 Eh/a0  converged?    E=F G=F D=F
   time step     :     0.4026275 fs     power     :   0.2973385E-09
   step length   :     0.0053940 a0     speed     :   0.3240571E-03

........................................................................
.............................. CYCLE   31 ..............................
........................................................................

 iter      E             dE          RMSdq      gap      omega  full diag
   1  -5198.5960347 -0.519860E+04  0.478E-04    3.97       0.0  T
   2  -5198.5960347 -0.114214E-07  0.293E-04    3.97       5.5  T
   3  -5198.5960346  0.104351E-06  0.141E-04    3.97      11.4  T
     SCC iter.                  ...       10 min, 35.146 sec
     gradient                   ...        4 min, 47.091 sec
 * total energy  : -5104.0754375 Eh     change    :  -0.1005337E-04 Eh
   gradient norm :     0.0024970 Eh/a0  converged?    E=F G=F D=F
   time step     :     0.4428903 fs     power     :   0.2504532E-09
   step length   :     0.0060822 a0     speed     :   0.3321842E-03

........................................................................
.............................. CYCLE   32 ..............................
........................................................................

 iter      E             dE          RMSdq      gap      omega  full diag
   1  -5198.5966806 -0.519860E+04  0.508E-04    3.97       0.0  T
   2  -5198.5966806 -0.130221E-07  0.310E-04    3.97       5.2  T
   3  -5198.5966805  0.107249E-06  0.141E-04    3.97      11.4  T
     SCC iter.                  ...       10 min, 37.806 sec
     gradient                   ...        4 min, 44.139 sec
 * total energy  : -5104.0754467 Eh     change    :  -0.9281106E-05 Eh
   gradient norm :     0.0024373 Eh/a0  converged?    E=F G=F D=F
   time step     :     0.4871793 fs     power     :   0.2030014E-09
   step length   :     0.0067856 a0     speed     :   0.3369124E-03

........................................................................
.............................. CYCLE   33 ..............................
........................................................................

 iter      E             dE          RMSdq      gap      omega  full diag
   1  -5198.5977797 -0.519860E+04  0.517E-04    3.97       0.0  T
   2  -5198.5977798 -0.136160E-07  0.312E-04    3.97       5.2  T
   3  -5198.5977797  0.709442E-07  0.115E-04    3.97      14.0  T
     SCC iter.                  ...       10 min, 38.575 sec
     gradient                   ...        4 min, 44.854 sec
 * total energy  : -5104.0754556 Eh     change    :  -0.8806017E-05 Eh
   gradient norm :     0.0024895 Eh/a0  converged?    E=F G=F D=F
   time step     :     0.5358972 fs     power     :   0.1708148E-09
   step length   :     0.0074758 a0     speed     :   0.3374367E-03

........................................................................
.............................. CYCLE   34 ..............................
........................................................................

 iter      E             dE          RMSdq      gap      omega  full diag
   1  -5198.5991282 -0.519860E+04  0.504E-04    3.97       0.0  T
   2  -5198.5991282 -0.128512E-07  0.301E-04    3.97       5.4  T
   3  -5198.5991282  0.166829E-07  0.640E-05    3.97      25.2  T
     SCC iter.                  ...       10 min, 36.233 sec
     gradient                   ...        4 min, 45.672 sec
 * total energy  : -5104.0754646 Eh     change    :  -0.9043802E-05 Eh
   gradient norm :     0.0025848 Eh/a0  converged?    E=F G=F D=F
   time step     :     0.5894869 fs     power     :   0.1621782E-09
   step length   :     0.0081775 a0     speed     :   0.3355547E-03

........................................................................
.............................. CYCLE   35 ..............................
........................................................................

 iter      E             dE          RMSdq      gap      omega  full diag
   1  -5198.6004458 -0.519860E+04  0.475E-04    3.97       0.0  T
   2  -5198.6004459 -0.986529E-08  0.288E-04    3.97       5.6  T
   3  -5198.6004458  0.165419E-07  0.596E-05    3.97      27.0  T
     SCC iter.                  ...       10 min, 37.090 sec
     gradient                   ...        4 min, 45.576 sec
 * total energy  : -5104.0754749 Eh     change    :  -0.1027211E-04 Eh
   gradient norm :     0.0026100 Eh/a0  converged?    E=F G=F D=F
   time step     :     0.6484356 fs     power     :   0.1762620E-09
   step length   :     0.0089695 a0     speed     :   0.3345919E-03

........................................................................
.............................. CYCLE   36 ..............................
........................................................................

 iter      E             dE          RMSdq      gap      omega  full diag
   1  -5198.6014366 -0.519860E+04  0.456E-04    3.97       0.0  T
   2  -5198.6014366 -0.760974E-08  0.281E-04    3.97       5.7  T
   3  -5198.6014365  0.270911E-07  0.712E-05    3.97      22.6  T
     SCC iter.                  ...       10 min, 38.245 sec
     gradient                   ...        4 min, 45.463 sec
 * total energy  : -5104.0754872 Eh     change    :  -0.1228409E-04 Eh
   gradient norm :     0.0024627 Eh/a0  converged?    E=F G=F D=F
   time step     :     0.7132792 fs     power     :   0.1957088E-09
   step length   :     0.0099608 a0     speed     :   0.3377914E-03

........................................................................
.............................. CYCLE   37 ..............................
........................................................................

 iter      E             dE          RMSdq      gap      omega  full diag
   1  -5198.6018654 -0.519860E+04  0.454E-04    3.97       0.0  T
   2  -5198.6018654 -0.119644E-07  0.291E-04    3.97       5.5  T
   3  -5198.6018653  0.742548E-07  0.111E-04    3.97      14.5  T
     SCC iter.                  ...       10 min, 38.992 sec
     gradient                   ...        4 min, 43.816 sec
 * total energy  : -5104.0755012 Eh     change    :  -0.1407758E-04 Eh
   gradient norm :     0.0023554 Eh/a0  converged?    E=F G=F D=F
   time step     :     0.7846071 fs     power     :   0.2001975E-09
   step length   :     0.0112181 a0     speed     :   0.3458449E-03

........................................................................
.............................. CYCLE   38 ..............................
........................................................................

 iter      E             dE          RMSdq      gap      omega  full diag
   1  -5198.6016512 -0.519860E+04  0.482E-04    3.97       0.0  T
   2  -5198.6016512 -0.173686E-07  0.304E-04    3.97       5.3  T
   3  -5198.6016511  0.654918E-07  0.109E-04    3.97      14.8  T
     SCC iter.                  ...       10 min, 36.202 sec
     gradient                   ...        4 min, 44.934 sec
 * total energy  : -5104.0755173 Eh     change    :  -0.1608992E-04 Eh
   gradient norm :     0.0024983 Eh/a0  converged?    E=F G=F D=F
   time step     :     0.8630678 fs     power     :   0.2121147E-09
   step length   :     0.0127111 a0     speed     :   0.3562494E-03

........................................................................
.............................. CYCLE   39 ..............................
........................................................................

 iter      E             dE          RMSdq      gap      omega  full diag
   1  -5198.6010271 -0.519860E+04  0.559E-04    3.97       0.0  T
   2  -5198.6010271 -0.159835E-07  0.337E-04    3.97       4.8  T
   3  -5198.6010271  0.274795E-07  0.786E-05    3.97      20.5  T
     SCC iter.                  ...       10 min, 40.358 sec
     gradient                   ...        4 min, 44.544 sec
 * total energy  : -5104.0755376 Eh     change    :  -0.2029390E-04 Eh
   gradient norm :     0.0024461 Eh/a0  converged?    E=F G=F D=F
   time step     :     0.9493746 fs     power     :   0.2545577E-09
   step length   :     0.0145202 a0     speed     :   0.3699564E-03

........................................................................
.............................. CYCLE   40 ..............................
........................................................................

 iter      E             dE          RMSdq      gap      omega  full diag
   1  -5198.6005755 -0.519860E+04  0.651E-04    3.97       0.0  T
   2  -5198.6005756 -0.176778E-07  0.394E-04    3.97       4.1  T
   3  -5198.6005755  0.490054E-07  0.994E-05    3.97      16.2  T
     SCC iter.                  ...       10 min, 37.614 sec
     gradient                   ...        4 min, 44.448 sec
 * total energy  : -5104.0755623 Eh     change    :  -0.2470299E-04 Eh
   gradient norm :     0.0021444 Eh/a0  converged?    E=F G=F D=F
   time step     :     1.0443120 fs     power     :   0.2765820E-09
   step length   :     0.0169115 a0     speed     :   0.3917123E-03

........................................................................
.............................. CYCLE   41 ..............................
........................................................................

 iter      E             dE          RMSdq      gap      omega  full diag
   1  -5198.6011247 -0.519860E+04  0.698E-04    3.97       0.0  T
   2  -5198.6011247 -0.222353E-07  0.429E-04    3.97       3.7  T
   3  -5198.6011246  0.811187E-07  0.124E-04    3.97      13.0  T
     SCC iter.                  ...       10 min, 37.570 sec
     gradient                   ...        4 min, 46.542 sec
 * total energy  : -5104.0755891 Eh     change    :  -0.2679347E-04 Eh
   gradient norm :     0.0022056 Eh/a0  converged?    E=F G=F D=F
   time step     :     1.1487432 fs     power     :   0.2633233E-09
   step length   :     0.0198492 a0     speed     :   0.4179600E-03

........................................................................
.............................. CYCLE   42 ..............................
........................................................................

 iter      E             dE          RMSdq      gap      omega  full diag
   1  -5198.6029129 -0.519860E+04  0.750E-04    3.97       0.0  T
   2  -5198.6029130 -0.185191E-07  0.447E-04    3.97       3.6  T
   3  -5198.6029129  0.197560E-07  0.738E-05    3.97      21.8  T
     SCC iter.                  ...       10 min, 38.090 sec
     gradient                   ...        4 min, 47.089 sec
 * total energy  : -5104.0756202 Eh     change    :  -0.3108410E-04 Eh
   gradient norm :     0.0023507 Eh/a0  converged?    E=F G=F D=F
   time step     :     1.2500000 fs     power     :   0.3009465E-09
   step length   :     0.0228142 a0     speed     :   0.4414795E-03
 * RMSD in coord.:     0.0025471 a0     energy gain  -0.2663554E-03 Eh

........................................................................
.............................. CYCLE   43 ..............................
........................................................................

 iter      E             dE          RMSdq      gap      omega  full diag
   1  -5198.6032597 -0.519860E+04  0.146E-04    3.97       0.0  T
   2  -5198.6032597 -0.771252E-09  0.857E-05    3.97      18.8  T
   3  -5198.6032597  0.328055E-08  0.279E-05    3.97      57.8  T
     SCC iter.                  ...       10 min, 38.219 sec
     gradient                   ...        4 min, 47.946 sec
 * total energy  : -5104.0756266 Eh     change    :  -0.6448848E-05 Eh
   gradient norm :     0.0022892 Eh/a0  converged?    E=F G=F D=F
   time step     :     0.2500000 fs     power     :   0.3361571E-09
   step length   :     0.0044492 a0     speed     :   0.4304877E-03

........................................................................
.............................. CYCLE   44 ..............................
........................................................................

 iter      E             dE          RMSdq      gap      omega  full diag
   1  -5198.6035771 -0.519860E+04  0.153E-04    3.97       0.0  T
   2  -5198.6035771 -0.101954E-08  0.913E-05    3.97      17.6  T
   3  -5198.6035771  0.310411E-08  0.263E-05    3.97      61.2  T
     SCC iter.                  ...       10 min, 34.520 sec
     gradient                   ...        4 min, 44.316 sec
 * total energy  : -5104.0756335 Eh     change    :  -0.6874379E-05 Eh
   gradient norm :     0.0020941 Eh/a0  converged?    E=F G=F D=F
   time step     :     0.2500000 fs     power     :   0.3578240E-09
   step length   :     0.0043879 a0     speed     :   0.4245510E-03

........................................................................
.............................. CYCLE   45 ..............................
........................................................................

 iter      E             dE          RMSdq      gap      omega  full diag
   1  -5198.6038518 -0.519860E+04  0.169E-04    3.97       0.0  T
   2  -5198.6038518 -0.159253E-08  0.102E-04    3.97      15.8  T
   3  -5198.6038518  0.532964E-08  0.334E-05    3.97      48.1  T
     SCC iter.                  ...       10 min, 36.969 sec
     gradient                   ...        4 min, 44.430 sec
 * total energy  : -5104.0756406 Eh     change    :  -0.7051231E-05 Eh
   gradient norm :     0.0018362 Eh/a0  converged?    E=F G=F D=F
   time step     :     0.2500000 fs     power     :   0.3587244E-09
   step length   :     0.0043777 a0     speed     :   0.4235667E-03

........................................................................
.............................. CYCLE   46 ..............................
........................................................................

 iter      E             dE          RMSdq      gap      omega  full diag
   1  -5198.6040739 -0.519860E+04  0.183E-04    3.97       0.0  T
   2  -5198.6040739 -0.199088E-08  0.112E-04    3.97      14.4  T
   3  -5198.6040739  0.672571E-08  0.367E-05    3.97      43.8  T
     SCC iter.                  ...       10 min, 35.053 sec
     gradient                   ...        4 min, 42.115 sec
 * total energy  : -5104.0756473 Eh     change    :  -0.6746679E-05 Eh
   gradient norm :     0.0016162 Eh/a0  converged?    E=F G=F D=F
   time step     :     0.2500000 fs     power     :   0.3411685E-09
   step length   :     0.0044084 a0     speed     :   0.4265326E-03

........................................................................
.............................. CYCLE   47 ..............................
........................................................................

 iter      E             dE          RMSdq      gap      omega  full diag
   1  -5198.6042387 -0.519860E+04  0.190E-04    3.97       0.0  T
   2  -5198.6042387 -0.196542E-08  0.116E-04    3.97      13.8  T
   3  -5198.6042387  0.674754E-08  0.361E-05    3.97      44.6  T
     SCC iter.                  ...       10 min, 35.980 sec
     gradient                   ...        4 min, 44.069 sec
 * total energy  : -5104.0756536 Eh     change    :  -0.6293559E-05 Eh
   gradient norm :     0.0015277 Eh/a0  converged?    E=F G=F D=F
   time step     :     0.2500000 fs     power     :   0.3159793E-09
   step length   :     0.0044567 a0     speed     :   0.4312059E-03

........................................................................
.............................. CYCLE   48 ..............................
........................................................................

 iter      E             dE          RMSdq      gap      omega  full diag
   1  -5198.6043584 -0.519860E+04  0.204E-04    3.97       0.0  T
   2  -5198.6043584 -0.208547E-08  0.124E-04    3.97      12.9  T
   3  -5198.6043584  0.632735E-08  0.348E-05    3.97      46.2  T
     SCC iter.                  ...       10 min, 37.596 sec
     gradient                   ...        4 min, 44.784 sec
 * total energy  : -5104.0756601 Eh     change    :  -0.6477191E-05 Eh
   gradient norm :     0.0015849 Eh/a0  converged?    E=F G=F D=F
   time step     :     0.2750000 fs     power     :   0.2947131E-09
   step length   :     0.0049440 a0     speed     :   0.4348714E-03

........................................................................
.............................. CYCLE   49 ..............................
........................................................................

 iter      E             dE          RMSdq      gap      omega  full diag
   1  -5198.6044316 -0.519860E+04  0.205E-04    3.97       0.0  T
   2  -5198.6044316 -0.174714E-08  0.124E-04    3.97      13.0  T
   3  -5198.6044316  0.374075E-08  0.281E-05    3.97      57.3  T
     SCC iter.                  ...       10 min, 34.971 sec
     gradient                   ...        4 min, 45.042 sec
 * total energy  : -5104.0756670 Eh     change    :  -0.6896391E-05 Eh
   gradient norm :     0.0017147 Eh/a0  converged?    E=F G=F D=F
   time step     :     0.3025000 fs     power     :   0.2885640E-09
   step length   :     0.0054421 a0     speed     :   0.4351646E-03

........................................................................
.............................. CYCLE   50 ..............................
........................................................................

 iter      E             dE          RMSdq      gap      omega  full diag
   1  -5198.6044585 -0.519860E+04  0.199E-04    3.97       0.0  T
   2  -5198.6044585 -0.115415E-08  0.118E-04    3.97      13.6  T
   3  -5198.6044585  0.150885E-08  0.196E-05    3.97      81.9  T
     SCC iter.                  ...       10 min, 35.986 sec
     gradient                   ...        4 min, 43.509 sec
 * total energy  : -5104.0756747 Eh     change    :  -0.7678480E-05 Eh
   gradient norm :     0.0018058 Eh/a0  converged?    E=F G=F D=F
   time step     :     0.3327500 fs     power     :   0.2985813E-09
   step length   :     0.0059634 a0     speed     :   0.4334997E-03

........................................................................
.............................. CYCLE   51 ..............................
........................................................................

 iter      E             dE          RMSdq      gap      omega  full diag
   1  -5198.6044340 -0.519860E+04  0.197E-04    3.97       0.0  T
   2  -5198.6044340 -0.716682E-09  0.116E-04    3.97      13.8  T
   3  -5198.6044340  0.100226E-08  0.170E-05    3.97      94.5  T
     SCC iter.                  ...       10 min, 34.930 sec
     gradient                   ...        4 min, 44.946 sec
 * total energy  : -5104.0756836 Eh     change    :  -0.8902907E-05 Eh
   gradient norm :     0.0017843 Eh/a0  converged?    E=F G=F D=F
   time step     :     0.3660250 fs     power     :   0.3159204E-09
   step length   :     0.0065529 a0     speed     :   0.4330515E-03

........................................................................
.............................. CYCLE   52 ..............................
........................................................................

 iter      E             dE          RMSdq      gap      omega  full diag
   1  -5198.6043416 -0.519860E+04  0.209E-04    3.97       0.0  T
   2  -5198.6043416 -0.114323E-08  0.125E-04    3.97      12.8  T
   3  -5198.6043416  0.326236E-08  0.262E-05    3.97      61.5  T
     SCC iter.                  ...       10 min, 37.218 sec
     gradient                   ...        4 min, 44.648 sec
 * total energy  : -5104.0756937 Eh     change    :  -0.1014336E-04 Eh
   gradient norm :     0.0016480 Eh/a0  converged?    E=F G=F D=F
   time step     :     0.4026275 fs     power     :   0.3274969E-09
   step length   :     0.0072624 a0     speed     :   0.4363095E-03

........................................................................
.............................. CYCLE   53 ..............................
........................................................................

 iter      E             dE          RMSdq      gap      omega  full diag
   1  -5198.6041515 -0.519860E+04  0.237E-04    3.97       0.0  T
   2  -5198.6041515 -0.228647E-08  0.145E-04    3.97      11.1  T
   3  -5198.6041515  0.869477E-08  0.410E-05    3.97      39.2  T
     SCC iter.                  ...       10 min, 38.738 sec
     gradient                   ...        4 min, 44.837 sec
 * total energy  : -5104.0757049 Eh     change    :  -0.1123906E-04 Eh
   gradient norm :     0.0015030 Eh/a0  converged?    E=F G=F D=F
   time step     :     0.4428903 fs     power     :   0.3250481E-09
   step length   :     0.0081330 a0     speed     :   0.4441905E-03

........................................................................
.............................. CYCLE   54 ..............................
........................................................................

 iter      E             dE          RMSdq      gap      omega  full diag
   1  -5198.6038313 -0.519860E+04  0.268E-04    3.97       0.0  T
   2  -5198.6038313 -0.323325E-08  0.165E-04    3.97       9.7  T
   3  -5198.6038313  0.117616E-07  0.473E-05    3.97      34.0  T
     SCC iter.                  ...       10 min, 37.840 sec
     gradient                   ...        4 min, 44.651 sec
 * total energy  : -5104.0757170 Eh     change    :  -0.1209401E-04 Eh
   gradient norm :     0.0014978 Eh/a0  converged?    E=F G=F D=F
   time step     :     0.4871793 fs     power     :   0.3153908E-09
   step length   :     0.0091645 a0     speed     :   0.4550223E-03

........................................................................
.............................. CYCLE   55 ..............................
........................................................................

 iter      E             dE          RMSdq      gap      omega  full diag
   1  -5198.6033865 -0.519860E+04  0.289E-04    3.97       0.0  T
   2  -5198.6033865 -0.274304E-08  0.175E-04    3.97       9.2  T
   3  -5198.6033865  0.802902E-08  0.403E-05    3.97      39.9  T
     SCC iter.                  ...       10 min, 35.685 sec
     gradient                   ...        4 min, 45.420 sec
 * total energy  : -5104.0757301 Eh     change    :  -0.1310594E-04 Eh
   gradient norm :     0.0015866 Eh/a0  converged?    E=F G=F D=F
   time step     :     0.5358972 fs     power     :   0.3150915E-09
   step length   :     0.0102994 a0     speed     :   0.4648844E-03

........................................................................
.............................. CYCLE   56 ..............................
........................................................................

 iter      E             dE          RMSdq      gap      omega  full diag
   1  -5198.6028976 -0.519860E+04  0.304E-04    3.97       0.0  T
   2  -5198.6028976 -0.209184E-08  0.180E-04    3.97       8.9  T
   3  -5198.6028976  0.295586E-08  0.294E-05    3.97      54.8  T
     SCC iter.                  ...       10 min, 33.305 sec
     gradient                   ...        4 min, 43.805 sec
 * total energy  : -5104.0757450 Eh     change    :  -0.1489542E-04 Eh
   gradient norm :     0.0016279 Eh/a0  converged?    E=F G=F D=F
   time step     :     0.5894869 fs     power     :   0.3281822E-09
   step length   :     0.0115422 a0     speed     :   0.4736214E-03

........................................................................
.............................. CYCLE   57 ..............................
........................................................................

 iter      E             dE          RMSdq      gap      omega  full diag
   1  -5198.6025302 -0.519860E+04  0.327E-04    3.97       0.0  T
   2  -5198.6025302 -0.231466E-08  0.195E-04    3.97       8.3  T
   3  -5198.6025302  0.860473E-08  0.413E-05    3.97      39.0  T
     SCC iter.                  ...       10 min, 34.237 sec
     gradient                   ...        4 min, 45.604 sec
 * total energy  : -5104.0757623 Eh     change    :  -0.1722896E-04 Eh
   gradient norm :     0.0015660 Eh/a0  converged?    E=F G=F D=F
   time step     :     0.6484356 fs     power     :   0.3448840E-09
   step length   :     0.0129844 a0     speed     :   0.4843602E-03

........................................................................
.............................. CYCLE   58 ..............................
........................................................................

 iter      E             dE          RMSdq      gap      omega  full diag
   1  -5198.6025149 -0.519860E+04  0.374E-04    3.97       0.0  T
   2  -5198.6025149 -0.362434E-08  0.226E-04    3.97       7.1  T
   3  -5198.6025148  0.242644E-07  0.655E-05    3.97      24.5  T
     SCC iter.                  ...       10 min, 36.847 sec
     gradient                   ...        4 min, 43.655 sec
 * total energy  : -5104.0757818 Eh     change    :  -0.1949882E-04 Eh
   gradient norm :     0.0014543 Eh/a0  converged?    E=F G=F D=F
   time step     :     0.7132792 fs     power     :   0.3521640E-09
   step length   :     0.0147251 a0     speed     :   0.4993604E-03

........................................................................
.............................. CYCLE   59 ..............................
........................................................................

 iter      E             dE          RMSdq      gap      omega  full diag
   1  -5198.6030326 -0.519860E+04  0.421E-04    3.97       0.0  T
   2  -5198.6030326 -0.432647E-08  0.253E-04    3.97       6.4  T
   3  -5198.6030326  0.245718E-07  0.677E-05    3.97      23.8  T
     SCC iter.                  ...       10 min, 38.529 sec
     gradient                   ...        4 min, 44.830 sec
 * total energy  : -5104.0758034 Eh     change    :  -0.2162932E-04 Eh
   gradient norm :     0.0015121 Eh/a0  converged?    E=F G=F D=F
   time step     :     0.7846071 fs     power     :   0.3540166E-09
   step length   :     0.0168055 a0     speed     :   0.5181011E-03

........................................................................
.............................. CYCLE   60 ..............................
........................................................................

 iter      E             dE          RMSdq      gap      omega  full diag
   1  -5198.6039571 -0.519860E+04  0.450E-04    3.97       0.0  T
   2  -5198.6039571 -0.360433E-08  0.266E-04    3.97       6.0  T
   3  -5198.6039571  0.937416E-08  0.463E-05    3.97      34.8  T
     SCC iter.                  ...       10 min, 34.229 sec
     gradient                   ...        4 min, 45.460 sec
 * total energy  : -5104.0758280 Eh     change    :  -0.2461187E-04 Eh
   gradient norm :     0.0015401 Eh/a0  converged?    E=F G=F D=F
   time step     :     0.8630678 fs     power     :   0.3713965E-09
   step length   :     0.0191282 a0     speed     :   0.5360993E-03

........................................................................
.............................. CYCLE   61 ..............................
........................................................................

 iter      E             dE          RMSdq      gap      omega  full diag
   1  -5198.6048552 -0.519860E+04  0.509E-04    3.97       0.0  T
   2  -5198.6048552 -0.550062E-08  0.302E-04    3.97       5.3  T
   3  -5198.6048552  0.272394E-07  0.715E-05    3.97      22.5  T
     SCC iter.                  ...       10 min, 38.637 sec
     gradient                   ...        4 min, 45.301 sec
 * total energy  : -5104.0758563 Eh     change    :  -0.2832990E-04 Eh
   gradient norm :     0.0014378 Eh/a0  converged?    E=F G=F D=F
   time step     :     0.9493746 fs     power     :   0.3871695E-09
   step length   :     0.0218503 a0     speed     :   0.5567165E-03

........................................................................
.............................. CYCLE   62 ..............................
........................................................................

 iter      E             dE          RMSdq      gap      omega  full diag
   1  -5198.6052001 -0.519861E+04  0.578E-04    3.97       0.0  T
   2  -5198.6052001 -0.746786E-08  0.344E-04    3.97       4.7  T
   3  -5198.6052001  0.269738E-07  0.724E-05    3.97      22.2  T
     SCC iter.                  ...       10 min, 36.111 sec
     gradient                   ...        4 min, 44.807 sec
 * total energy  : -5104.0758883 Eh     change    :  -0.3193308E-04 Eh
   gradient norm :     0.0014808 Eh/a0  converged?    E=F G=F D=F
   time step     :     1.0443120 fs     power     :   0.3934817E-09
   step length   :     0.0251407 a0     speed     :   0.5823209E-03

........................................................................
.............................. CYCLE   63 ..............................
........................................................................

 iter      E             dE          RMSdq      gap      omega  full diag
   1  -5198.6048950 -0.519860E+04  0.627E-04    3.97       0.0  T
   2  -5198.6048950 -0.708133E-08  0.371E-04    3.97       4.3  T
   3  -5198.6048950  0.275686E-07  0.760E-05    3.97      21.2  T
     SCC iter.                  ...       10 min, 33.080 sec
     gradient                   ...        4 min, 44.372 sec
 * total energy  : -5104.0759250 Eh     change    :  -0.3675331E-04 Eh
   gradient norm :     0.0014845 Eh/a0  converged?    E=F G=F D=F
   time step     :     1.1487432 fs     power     :   0.4171691E-09
   step length   :     0.0288734 a0     speed     :   0.6079819E-03

........................................................................
.............................. CYCLE   64 ..............................
........................................................................

 iter      E             dE          RMSdq      gap      omega  full diag
   1  -5198.6044524 -0.519860E+04  0.719E-04    3.97       0.0  T
   2  -5198.6044524 -0.104374E-07  0.430E-04    3.97       3.7  T
   3  -5198.6044524  0.678874E-07  0.109E-04    3.97      14.7  T
     SCC iter.                  ...       10 min, 35.583 sec
     gradient                   ...        4 min, 43.582 sec
 * total energy  : -5104.0759669 Eh     change    :  -0.4192144E-04 Eh
   gradient norm :     0.0013899 Eh/a0  converged?    E=F G=F D=F
   time step     :     1.2500000 fs     power     :   0.4324811E-09
   step length   :     0.0329334 a0     speed     :   0.6372974E-03

........................................................................
.............................. CYCLE   65 ..............................
........................................................................

 iter      E             dE          RMSdq      gap      omega  full diag
   1  -5198.6046767 -0.519860E+04  0.747E-04    3.97       0.0  T
   2  -5198.6046767 -0.119999E-07  0.444E-04    3.97       3.6  T
   3  -5198.6046767  0.446416E-07  0.982E-05    3.97      16.4  T
     SCC iter.                  ...       10 min, 38.563 sec
     gradient                   ...        4 min, 44.033 sec
 * total energy  : -5104.0760100 Eh     change    :  -0.4301134E-04 Eh
   gradient norm :     0.0015019 Eh/a0  converged?    E=F G=F D=F
   time step     :     1.2500000 fs     power     :   0.4446129E-09
   step length   :     0.0345102 a0     speed     :   0.6678093E-03

........................................................................
.............................. CYCLE   66 ..............................
........................................................................

 iter      E             dE          RMSdq      gap      omega  full diag
   1  -5198.6052505 -0.519861E+04  0.790E-04    3.97       0.0  T
   2  -5198.6052505 -0.116434E-07  0.469E-04    3.97       3.4  T
   3  -5198.6052504  0.848640E-07  0.124E-04    3.97      13.0  T
     SCC iter.                  ...       10 min, 34.122 sec
     gradient                   ...        4 min, 45.324 sec
 * total energy  : -5104.0760547 Eh     change    :  -0.4476967E-04 Eh
   gradient norm :     0.0014627 Eh/a0  converged?    E=F G=F D=F
   time step     :     1.2500000 fs     power     :   0.4627640E-09
   step length   :     0.0358604 a0     speed     :   0.6939382E-03

........................................................................
.............................. CYCLE   67 ..............................
........................................................................

 iter      E             dE          RMSdq      gap      omega  full diag
   1  -5198.6054569 -0.519861E+04  0.804E-04    3.97       0.0  T
   2  -5198.6054570 -0.193577E-07  0.475E-04    3.97       3.4  T
   3  -5198.6054569  0.559294E-07  0.122E-04    3.97      13.2  T
     SCC iter.                  ...       10 min, 35.837 sec
     gradient                   ...        4 min, 44.023 sec
 * total energy  : -5104.0761002 Eh     change    :  -0.4549171E-04 Eh
   gradient norm :     0.0016818 Eh/a0  converged?    E=F G=F D=F
   time step     :     1.2500000 fs     power     :   0.4600513E-09
   step length   :     0.0372493 a0     speed     :   0.7208131E-03
 * RMSD in coord.:     0.0058927 a0     energy gain  -0.4800269E-03 Eh

........................................................................
.............................. CYCLE   68 ..............................
........................................................................

 iter      E             dE          RMSdq      gap      omega  full diag
   1  -5198.6055040 -0.519861E+04  0.157E-04    3.97       0.0  T
   2  -5198.6055040 -0.612090E-09  0.925E-05    3.97      17.4  T
   3  -5198.6055040  0.347791E-08  0.277E-05    3.97      58.0  T
     SCC iter.                  ...       10 min, 35.170 sec
     gradient                   ...        4 min, 44.806 sec
 * total energy  : -5104.0761095 Eh     change    :  -0.9263706E-05 Eh
   gradient norm :     0.0015456 Eh/a0  converged?    E=F G=F D=F
   time step     :     0.2500000 fs     power     :   0.4840282E-09
   step length   :     0.0073138 a0     speed     :   0.7076523E-03

........................................................................
.............................. CYCLE   69 ..............................
........................................................................

 iter      E             dE          RMSdq      gap      omega  full diag
   1  -5198.6055632 -0.519861E+04  0.170E-04    3.97       0.0  T
   2  -5198.6055632 -0.268938E-08  0.101E-04    3.97      16.0  T
   3  -5198.6055632  0.282125E-08  0.369E-05    3.97      43.6  T
     SCC iter.                  ...       10 min, 36.655 sec
     gradient                   ...        4 min, 44.652 sec
 * total energy  : -5104.0761187 Eh     change    :  -0.9228993E-05 Eh
   gradient norm :     0.0013381 Eh/a0  converged?    E=F G=F D=F
   time step     :     0.2500000 fs     power     :   0.4786682E-09
   step length   :     0.0072618 a0     speed     :   0.7026172E-03

........................................................................
.............................. CYCLE   70 ..............................
........................................................................

 iter      E             dE          RMSdq      gap      omega  full diag
   1  -5198.6056242 -0.519861E+04  0.172E-04    3.97       0.0  T
   2  -5198.6056242 -0.229556E-08  0.102E-04    3.97      15.7  T
   3  -5198.6056242  0.312593E-08  0.344E-05    3.97      46.8  T
     SCC iter.                  ...       10 min, 36.846 sec
     gradient                   ...        4 min, 45.139 sec
 * total energy  : -5104.0761277 Eh     change    :  -0.8983505E-05 Eh
[...]
  3613   6 C     3614   6 C                                       1.3826828
  3608   6 C     3615   6 C                                       1.5393312
  3617   6 C     3618   6 C                                       1.3902542
  3618   6 C     3619   6 C                                       1.3825381
  3619   6 C     3620   6 C                                       1.3843801
  3620   6 C     3621   6 C                                       1.3832840
  3617   6 C     3622   6 C                                       1.3883837
  3621   6 C     3622   6 C                                       1.3834504
  3616   6 C     3623   6 C                                       1.5374072
  3623   6 C     3624   6 C                                       1.5352811
  3625   6 C     3626   6 C                                       1.3886108
  3626   6 C     3627   6 C                                       1.3833047
  3627   6 C     3628   6 C                                       1.3828103
  3628   6 C     3629   6 C                                       1.3838840
  3625   6 C     3630   6 C                                       1.3899238
  3629   6 C     3630   6 C                                       1.3820961
  3624   6 C     3631   6 C                                       1.5369323
  3631   6 C     3632   6 C                                       1.5357214
  3633   6 C     3634   6 C                                       1.3908800
  3634   6 C     3635   6 C                                       1.3825483
  3635   6 C     3636   6 C                                       1.3841709
  3636   6 C     3637   6 C                                       1.3834281
  3633   6 C     3638   6 C                                       1.3896098
  3637   6 C     3638   6 C                                       1.3841648
  3632   6 C     3639   6 C                                       1.5376323
  3639   6 C     3640   6 C                                       1.5386169
  3641   6 C     3642   6 C                                       1.3905402
  3642   6 C     3643   6 C                                       1.3832659
  3643   6 C     3644   6 C                                       1.3846125
  3644   6 C     3645   6 C                                       1.3845873
  3641   6 C     3646   6 C                                       1.3891050
  3645   6 C     3646   6 C                                       1.3844357
  3640   6 C     3647   6 C                                       1.5364241
  3647   6 C     3648   6 C                                       1.5341731
  3649   6 C     3650   6 C                                       1.3904508
  3650   6 C     3651   6 C                                       1.3826781
  3651   6 C     3652   6 C                                       1.3847943
  3652   6 C     3653   6 C                                       1.3838162
  3649   6 C     3654   6 C                                       1.3895029
  3653   6 C     3654   6 C                                       1.3845672
  3655   6 C     3656   6 C                                       1.5369334
  3657   6 C     3658   6 C                                       1.3874948
  3658   6 C     3659   6 C                                       1.3840707
  3659   6 C     3660   6 C                                       1.3834196
  3660   6 C     3661   6 C                                       1.3848674
  3657   6 C     3662   6 C                                       1.3910527
  3661   6 C     3662   6 C                                       1.3834331
  3665   6 C     3666   6 C                                       1.3887001
  3666   6 C     3667   6 C                                       1.3845178
  3667   6 C     3668   6 C                                       1.3832645
  3668   6 C     3669   6 C                                       1.3852265
  3665   6 C     3670   6 C                                       1.3906099
  3669   6 C     3670   6 C                                       1.3826082
  3664   6 C     3671   6 C                                       1.5400817
  3671   6 C     3672   6 C                                       1.5373289
  3673   6 C     3674   6 C                                       1.3891799
  3674   6 C     3675   6 C                                       1.3836213
  3675   6 C     3676   6 C                                       1.3836867
  3676   6 C     3677   6 C                                       1.3843739
  3673   6 C     3678   6 C                                       1.3899616
  3677   6 C     3678   6 C                                       1.3830799
  3672   6 C     3679   6 C                                       1.5333695
  3679   6 C     3680   6 C                                       1.5352286
  3681   6 C     3682   6 C                                       1.3904953
  3682   6 C     3683   6 C                                       1.3826706
  3683   6 C     3684   6 C                                       1.3838946
  3684   6 C     3685   6 C                                       1.3841645
  3681   6 C     3686   6 C                                       1.3894532
  3685   6 C     3686   6 C                                       1.3839253
  3680   6 C     3687   6 C                                       1.5358061
  3687   6 C     3688   6 C                                       1.5341187
  3549   6 C     3689   1 H                                       1.0967921
  3551   6 C     3690   1 H                                       1.0926874
  3551   6 C     3691   1 H                                       1.0918025
  3552   6 C     3692   1 H                                       1.0947669
  3559   6 C     3693   1 H                                       1.0923902
  3559   6 C     3694   1 H                                       1.0920253
  3560   6 C     3695   1 H                                       1.0956102
  3567   6 C     3696   1 H                                       1.0921398
  3567   6 C     3697   1 H                                       1.0925321
  3568   6 C     3698   1 H                                       1.0956190
  3575   6 C     3699   1 H                                       1.0913459
  3576   6 C     3700   1 H                                       1.0963914
  3583   6 C     3701   1 H                                       1.0938737
  3583   6 C     3702   1 H                                       1.0899040
  3584   6 C     3703   1 H                                       1.0959191
  3591   6 C     3704   1 H                                       1.0909975
  3591   6 C     3705   1 H                                       1.0887570
  3592   6 C     3706   1 H                                       1.0957301
  3599   6 C     3707   1 H                                       1.0903457
  3599   6 C     3708   1 H                                       1.0922851
  3600   6 C     3709   1 H                                       1.0948947
  3608   6 C     3710   1 H                                       1.0925714
  3615   6 C     3711   1 H                                       1.0928932
  3615   6 C     3712   1 H                                       1.0928447
  3616   6 C     3713   1 H                                       1.0949308
  3623   6 C     3714   1 H                                       1.0891382
  3623   6 C     3715   1 H                                       1.0883043
  3624   6 C     3716   1 H                                       1.0969977
  3631   6 C     3717   1 H                                       1.0919342
  3631   6 C     3718   1 H                                       1.0927067
  3632   6 C     3719   1 H                                       1.0958932
  3639   6 C     3720   1 H                                       1.0909722
  3639   6 C     3721   1 H                                       1.0925550
  3640   6 C     3722   1 H                                       1.0947897
  3647   6 C     3723   1 H                                       1.0918214
  3647   6 C     3724   1 H                                       1.0922913
  3648   6 C     3725   1 H                                       1.0936553
  3655   6 C     3726   1 H                                       1.0933895
  3655   6 C     3727   1 H                                       1.0919914
  3656   6 C     3728   1 H                                       1.0952514
  3663   6 C     3729   1 H                                       1.0907149
  3663   6 C     3730   1 H                                       1.0908992
  3664   6 C     3731   1 H                                       1.0945942
  3671   6 C     3732   1 H                                       1.0921182
  3671   6 C     3733   1 H                                       1.0930684
  3672   6 C     3734   1 H                                       1.0925067
  3679   6 C     3735   1 H                                       1.0920374
  3679   6 C     3736   1 H                                       1.0918124
  3543   6 C     3737   1 H                                       1.0803135
  3548   6 C     3738   1 H                                       1.0808090
  3547   6 C     3739   1 H                                       1.0797318
  3546   6 C     3740   1 H                                       1.0814598
  3545   6 C     3741   1 H                                       1.0814922
  3554   6 C     3742   1 H                                       1.0812135
  3555   6 C     3743   1 H                                       1.0801515
  3556   6 C     3744   1 H                                       1.0813496
  3557   6 C     3745   1 H                                       1.0788161
  3558   6 C     3746   1 H                                       1.0790936
  3562   6 C     3747   1 H                                       1.0805648
  3563   6 C     3748   1 H                                       1.0806075
  3564   6 C     3749   1 H                                       1.0803551
  3565   6 C     3750   1 H                                       1.0810974
  3566   6 C     3751   1 H                                       1.0802369
  3570   6 C     3752   1 H                                       1.0806006
  3571   6 C     3753   1 H                                       1.0804020
  3572   6 C     3754   1 H                                       1.0812269
  3573   6 C     3755   1 H                                       1.0797236
  3574   6 C     3756   1 H                                       1.0809886
  3575   6 C     3757   1 H                                       1.0922057
  3578   6 C     3758   1 H                                       1.0809517
  3579   6 C     3759   1 H                                       1.0806054
  3580   6 C     3760   1 H                                       1.0798913
  3581   6 C     3761   1 H                                       1.0798341
  3582   6 C     3762   1 H                                       1.0795711
  3586   6 C     3763   1 H                                       1.0796076
  3587   6 C     3764   1 H                                       1.0812918
  3588   6 C     3765   1 H                                       1.0805687
  3589   6 C     3766   1 H                                       1.0809610
  3590   6 C     3767   1 H                                       1.0803326
  3594   6 C     3768   1 H                                       1.0786694
  3595   6 C     3769   1 H                                       1.0809081
  3596   6 C     3770   1 H                                       1.0806134
  3597   6 C     3771   1 H                                       1.0803495
  3598   6 C     3772   1 H                                       1.0802801
  3602   6 C     3773   1 H                                       1.0807736
  3603   6 C     3774   1 H                                       1.0797609
  3604   6 C     3775   1 H                                       1.0803811
  3605   6 C     3776   1 H                                       1.0803526
  3606   6 C     3777   1 H                                       1.0797772
  3607   6 C     3778   1 H                                       1.0893631
  3607   6 C     3779   1 H                                       1.0916689
  3610   6 C     3780   1 H                                       1.0814059
  3611   6 C     3781   1 H                                       1.0801663
  3612   6 C     3782   1 H                                       1.0807033
  3613   6 C     3783   1 H                                       1.0805419
  3614   6 C     3784   1 H                                       1.0802436
  3618   6 C     3785   1 H                                       1.0806580
  3619   6 C     3786   1 H                                       1.0813845
  3620   6 C     3787   1 H                                       1.0799420
  3621   6 C     3788   1 H                                       1.0803396
  3622   6 C     3789   1 H                                       1.0809297
  3626   6 C     3790   1 H                                       1.0815369
  3627   6 C     3791   1 H                                       1.0805643
  3628   6 C     3792   1 H                                       1.0803288
  3629   6 C     3793   1 H                                       1.0811100
  3630   6 C     3794   1 H                                       1.0810337
  3634   6 C     3795   1 H                                       1.0804719
  3635   6 C     3796   1 H                                       1.0794899
  3636   6 C     3797   1 H                                       1.0796751
  3637   6 C     3798   1 H                                       1.0806023
  3638   6 C     3799   1 H                                       1.0814784
  3642   6 C     3800   1 H                                       1.0801132
  3643   6 C     3801   1 H                                       1.0816604
  3644   6 C     3802   1 H                                       1.0803906
  3645   6 C     3803   1 H                                       1.0805189
  3646   6 C     3804   1 H                                       1.0810979
  3650   6 C     3805   1 H                                       1.0792532
  3651   6 C     3806   1 H                                       1.0802864
  3652   6 C     3807   1 H                                       1.0802594
  3653   6 C     3808   1 H                                       1.0803874
  3654   6 C     3809   1 H                                       1.0817559
  3658   6 C     3810   1 H                                       1.0808355
  3659   6 C     3811   1 H                                       1.0788381
  3660   6 C     3812   1 H                                       1.0805237
  3661   6 C     3813   1 H                                       1.0808882
  3662   6 C     3814   1 H                                       1.0810645
  3666   6 C     3815   1 H                                       1.0818467
  3667   6 C     3816   1 H                                       1.0804011
  3668   6 C     3817   1 H                                       1.0801075
  3669   6 C     3818   1 H                                       1.0805034
  3670   6 C     3819   1 H                                       1.0799112
  3674   6 C     3820   1 H                                       1.0803199
  3675   6 C     3821   1 H                                       1.0806197
  3676   6 C     3822   1 H                                       1.0802319
  3677   6 C     3823   1 H                                       1.0806341
  3678   6 C     3824   1 H                                       1.0803355
  3686   6 C     3825   1 H                                       1.0805964
  3685   6 C     3826   1 H                                       1.0808280
  3684   6 C     3827   1 H                                       1.0801261
  3683   6 C     3828   1 H                                       1.0799906
  3682   6 C     3829   1 H                                       1.0805103
  3550   6 C     3830   1 H                                       1.0882116
  3550   6 C     3831   1 H                                       1.0863593
  3550   6 C     3832   1 H                                       1.0879481
  3680   6 C     3833   1 H                                       1.0951386
  3687   6 C     3834   1 H                                       1.0922093
  3687   6 C     3835   1 H                                       1.0912138
  3688   6 C     3836   6 C                                       1.5383898
  3837   6 C     3838   6 C                                       1.3889451
  3838   6 C     3839   6 C                                       1.3834259
  3839   6 C     3840   6 C                                       1.3837286
  3840   6 C     3841   6 C                                       1.3843421
  3837   6 C     3842   6 C                                       1.3898871
  3841   6 C     3842   6 C                                       1.3832557
  3838   6 C     3843   1 H                                       1.0808580
  3839   6 C     3844   1 H                                       1.0797010
  3840   6 C     3845   1 H                                       1.0805837
  3841   6 C     3846   1 H                                       1.0804386
  3842   6 C     3847   1 H                                       1.0800942
  3836   6 C     3848   6 C                                       1.5321666
  3836   6 C     3849   1 H                                       1.0930829
  3836   6 C     3850   1 H                                       1.0922607
  3851   6 C     3852   6 C                                       1.3891074
  3852   6 C     3853   6 C                                       1.3837359
  3853   6 C     3854   6 C                                       1.3842322
  3854   6 C     3855   6 C                                       1.3841595
  3851   6 C     3856   6 C                                       1.3895250
  3855   6 C     3856   6 C                                       1.3827537
  3852   6 C     3857   1 H                                       1.0812641
  3853   6 C     3858   1 H                                       1.0805994
  3854   6 C     3859   1 H                                       1.0801012
  3855   6 C     3860   1 H                                       1.0800433
  3856   6 C     3861   1 H                                       1.0808727
  3688   6 C     3862   1 H                                       1.0956834
  3848   6 C     3863   1 H                                       1.0911324
  3848   6 C     3864   1 H                                       1.0928722

 * 2 distinct bonds (by element types)

   Z      Z             #   av. dist./Å        max./Å        min./Å
   1 H    6 C        1944     1.0851101     1.0986825     1.0768429
   6 C    6 C        1861     1.4196176     1.5406991     1.3804310


optimized geometry written to: xtbopt.xyz


           -------------------------------------------------
          | TOTAL ENERGY            -5104.082000449715 Eh   |
          | GRADIENT NORM               0.000966698574 Eh/α |
          | HOMO-LUMO GAP               3.965792670608 eV   |
           -------------------------------------------------

------------------------------------------------------------------------
 * finished run on 2024/10/08 at 13:42:46.341     
------------------------------------------------------------------------
 total:
 * wall-time:     3 d, 16 h, 36 min, 59.072 sec
 *  cpu-time:    23 d, 20 h, 23 min, 48.956 sec
 * ratio c/w:     6.459 speedup
 SCF:
 * wall-time:     0 d,  0 h, 47 min, 38.567 sec
 *  cpu-time:     0 d,  5 h, 45 min, 34.124 sec
 * ratio c/w:     7.253 speedup
 ANC optimizer:
 * wall-time:     3 d, 15 h, 48 min,  9.264 sec
 *  cpu-time:    23 d, 14 h, 36 min, 41.852 sec
 * ratio c/w:     6.453 speedup

