      -----------------------------------------------------------      
     |                   =====================                   |     
     |                           x T B                           |     
     |                   =====================                   |     
     |                         S. Grimme                         |     
     |          Mulliken Center for Theoretical Chemistry        |     
     |                    University of Bonn                     |     
      -----------------------------------------------------------      

   * xtb version 6.6.1 (8d0f1dd) compiled by 'stahn@M-Bot' on 2023-08-01

   xtb is free software: you can redistribute it and/or modify it under
   the terms of the GNU Lesser General Public License as published by
   the Free Software Foundation, either version 3 of the License, or
   (at your option) any later version.
   
   xtb is distributed in the hope that it will be useful,
   but WITHOUT ANY WARRANTY; without even the implied warranty of
   MERCHANTABILITY or FITNESS FOR A PARTICULAR PURPOSE.  See the
   GNU Lesser General Public License for more details.
   
   Cite this work as:
   * C. Bannwarth, E. Caldeweyher, S. Ehlert, A. Hansen, P. Pracht,
     J. Seibert, S. Spicher, S. Grimme, WIREs Comput. Mol. Sci., 2020, 11,
     e01493. DOI: 10.1002/wcms.1493
   
   for GFN2-xTB:
   * C. Bannwarth, S. Ehlert and S. Grimme., J. Chem. Theory Comput., 2019,
     15, 1652-1671. DOI: 10.1021/acs.jctc.8b01176
   for GFN1-xTB:
   * S. Grimme, C. Bannwarth, P. Shushkov, J. Chem. Theory Comput., 2017,
     13, 1989-2009. DOI: 10.1021/acs.jctc.7b00118
   for GFN0-xTB:
   * P. Pracht, E. Caldeweyher, S. Ehlert, S. Grimme, ChemRxiv, 2019, preprint.
     DOI: 10.26434/chemrxiv.8326202.v1
   for GFN-FF:
   * S. Spicher and S. Grimme, Angew. Chem. Int. Ed., 2020, 59, 15665-15673.
     DOI: 10.1002/anie.202004239
   
   for ALPB and GBSA implicit solvation:
   * S. Ehlert, M. Stahn, S. Spicher, S. Grimme, J. Chem. Theory Comput.,
     2021, 17, 4250-4261. DOI: 10.1021/acs.jctc.1c00471
   
   for DFT-D4:
   * E. Caldeweyher, C. Bannwarth and S. Grimme, J. Chem. Phys., 2017,
     147, 034112. DOI: 10.1063/1.4993215
   * E. Caldeweyher, S. Ehlert, A. Hansen, H. Neugebauer, S. Spicher,
     C. Bannwarth and S. Grimme, J. Chem. Phys., 2019, 150, 154122.
     DOI: 10.1063/1.5090222
   * E. Caldeweyher, J.-M. Mewes, S. Ehlert and S. Grimme, Phys. Chem. Chem. Phys.
     2020, 22, 8499-8512. DOI: 10.1039/D0CP00502A
   
   for sTDA-xTB:
   * S. Grimme and C. Bannwarth, J. Chem. Phys., 2016, 145, 054103.
     DOI: 10.1063/1.4959605
   
   in the mass-spec context:
   * V. Asgeirsson, C. Bauer and S. Grimme, Chem. Sci., 2017, 8, 4879.
     DOI: 10.1039/c7sc00601b
   * J. Koopman and S. Grimme, ACS Omega 2019, 4, 12, 15120-15133.
     DOI: 10.1021/acsomega.9b02011
   
   for metadynamics refer to:
   * S. Grimme, J. Chem. Theory Comput., 2019, 155, 2847-2862
     DOI: 10.1021/acs.jctc.9b00143
   
   for SPH calculations refer to:
   * S. Spicher and S. Grimme, J. Chem. Theory Comput., 2021, 17, 1701-1714
     DOI: 10.1021/acs.jctc.0c01306
   
   with help from (in alphabetical order)
   P. Atkinson, C. Bannwarth, F. Bohle, G. Brandenburg, E. Caldeweyher
   M. Checinski, S. Dohm, S. Ehlert, S. Ehrlich, I. Gerasimov, C. Hölzer
   A. Katbashev, J. Koopman, C. Lavigne, S. Lehtola, F. März, M. Müller,
   F. Musil, H. Neugebauer, J. Pisarek, C. Plett, P. Pracht, F. Pultar,
   J. Seibert, P. Shushkov, S. Spicher, M. Stahn, M. Steiner, T. Strunk,
   J. Stückrath, T. Rose, and J. Unsleber
   
 * started run on 2024/06/17 at 15:17:36.756     

           -------------------------------------------------
          |                Calculation Setup                |
           -------------------------------------------------

          program call               : /home/abt-grimme/AK-bin/xtb input.xyz --input input.inp --opt --gbsa water
          hostname                   : boar068.thch.uni-bonn.de
          coordinate file            : input.xyz
          omp threads                :                     8

   ID    Z sym.   atoms
    1    6 C      1-120, 363-482, 725-844, 1087-1206, 1449-1568, 1811-1930,
                  2173-2292, 2535-2654, 2897-3016
    2    1 H      121-362, 483-724, 845-1086, 1207-1448, 1569-1810,
                  1931-2172, 2293-2534, 2655-2896, 3017-3258

molecular fragmentation (1/2 indicates fragments):
111111111111111111111111111111111111111111111111111111111111111111111111
111111111111111111111111111111111111111111111111111111111111111111111111
111111111111111111111111111111111111111111111111111111111111111111111111
111111111111111111111111111111111111111111111111111111111111111111111111
111111111111111111111111111111111111111111111111111111111111111111111111
112222222222222222222222222222222222222222222222222222222222222222222222
222222222222222222222222222222222222222222222222222222222222222222222222
222222222222222222222222222222222222222222222222222222222222222222222222
222222222222222222222222222222222222222222222222222222222222222222222222
222222222222222222222222222222222222222222222222222222222222222222222222
222222222222222222222222222222222222222222222222222222222222222222222222
222222222222222222222222222222222222222222222222222222222222222222222222
222222222222222222222222222222222222222222222222222222222222222222222222
222222222222222222222222222222222222222222222222222222222222222222222222
222222222222222222222222222222222222222222222222222222222222222222222222
222222222222222222222222222222222222222222222222222222222222222222222222
222222222222222222222222222222222222222222222222222222222222222222222222
222222222222222222222222222222222222222222222222222222222222222222222222
222222222222222222222222222222222222222222222222222222222222222222222222
222222222222222222222222222222222222222222222222222222222222222222222222
222222222222222222222222222222222222222222222222222222222222222222222222
222222222222222222222222222222222222222222222222222222222222222222222222
222222222222222222222222222222222222222222222222222222222222222222222222
222222222222222222222222222222222222222222222222222222222222222222222222
222222222222222222222222222222222222222222222222222222222222222222222222
222222222222222222222222222222222222222222222222222222222222222222222222
222222222222222222222222222222222222222222222222222222222222222222222222
222222222222222222222222222222222222222222222222222222222222222222222222
222222222222222222222222222222222222222222222222222222222222222222222222
222222222222222222222222222222222222222222222222222222222222222222222222
222222222222222222222222222222222222222222222222222222222222222222222222
222222222222222222222222222222222222222222222222222222222222222222222222
222222222222222222222222222222222222222222222222222222222222222222222222
222222222222222222222222222222222222222222222222222222222222222222222222
222222222222222222222222222222222222222222222222222222222222222222222222
222222222222222222222222222222222222222222222222222222222222222222222222
222222222222222222222222222222222222222222222222222222222222222222222222
222222222222222222222222222222222222222222222222222222222222222222222222
222222222222222222222222222222222222222222222222222222222222222222222222
222222222222222222222222222222222222222222222222222222222222222222222222
222222222222222222222222222222222222222222222222222222222222222222222222
222222222222222222222222222222222222222222222222222222222222222222222222
222222222222222222222222222222222222222222222222222222222222222222222222
222222222222222222222222222222222222222222222222222222222222222222222222
222222222222222222222222222222222222222222222222222222222222222222222222
222222222222222222
# atoms in fragment 1/2:   362  2896
 fragment masses (1/2) :     1685.21    13481.68
CMA distance (Bohr)    :  12.604
constraining FC (au)   :  0.0500

           -------------------------------------------------
          |                 G F N 2 - x T B                 |
           -------------------------------------------------

        Reference                      10.1021/acs.jctc.8b01176
      * Hamiltonian:
        H0-scaling (s, p, d)           1.850000    2.230000    2.230000
        zeta-weighting                 0.500000
      * Dispersion:
        s8                             2.700000
        a1                             0.520000
        a2                             5.000000
        s9                             5.000000
      * Repulsion:
        kExp                           1.500000    1.000000
        rExp                           1.000000
      * Coulomb:
        alpha                          2.000000
        third order                    shell-resolved
        anisotropic                    true
        a3                             3.000000
        a5                             4.000000
        cn-shift                       1.200000
        cn-exp                         4.000000
        max-rad                        5.000000

      * Solvation model:               GBSA
        Solvent                        water
        Parameter file                 internal GFN2-xTB/GBSA
        Dielectric constant                8.0200E+01
        Reference state                gsolv [1 M gas/solution]
        Free energy shift                  1.8574E-03 Eh       1.1656E+00 kcal/mol
        Temperature                        2.9815E+02 K
        Density                            1.0000E+00 kg/L
        Solvent mass                       1.8000E+01 g/mol
        Interaction kernel             Still
        Born radius scaling (c1)           1.5524E+00
        Born radii integrator          GBOBC
        Born offset                        2.4628E-02 a0       4.6540E-02 AA
        H-bond correction              true
        Ion screening                  false
        Surface tension                    1.0000E-05 Eh       1.5569E+01 dyn/cm
        Grid points                               230 per atom
q/qsh data taken from xtbrestart
CAMM data taken from xtbrestart

          ...................................................
          :                      SETUP                      :
          :.................................................:
          :  # basis functions                6498          :
          :  # atomic orbitals                6498          :
          :  # shells                         4338          :
          :  # electrons                      6498          :
          :  max. iterations                   250          :
          :  Hamiltonian                  GFN2-xTB          :
          :  restarted?                       true          :
          :  GBSA solvation                   true          :
          :  PC potential                    false          :
          :  electronic temp.          300.0000000     K    :
          :  accuracy                    1.0000000          :
          :  -> integral cutoff          0.2500000E+02      :
          :  -> integral neglect         0.1000000E-07      :
          :  -> SCF convergence          0.1000000E-05 Eh   :
          :  -> wf. convergence          0.1000000E-03 e    :
          :  Broyden damping             0.4000000          :
          ...................................................

 iter      E             dE          RMSdq      gap      omega  full diag
   1  -3472.1626285 -0.347216E+04  0.556E-05   10.93       0.0  T
   2  -3472.1626285 -0.199134E-08  0.428E-05   10.93      40.9  T
   3  -3472.1626285 -0.267664E-08  0.212E-05   10.93      82.8  T

   *** convergence criteria satisfied after 3 iterations ***

         #    Occupation            Energy/Eh            Energy/eV
      -------------------------------------------------------------
         1        2.0000           -0.6164302             -16.7739
       ...           ...                  ...                  ...
      3243        2.0000           -0.3859386             -10.5019
      3244        2.0000           -0.3856154             -10.4931
      3245        2.0000           -0.3853618             -10.4862
      3246        2.0000           -0.3848733             -10.4729
      3247        2.0000           -0.3840023             -10.4492
      3248        2.0000           -0.3832209             -10.4280
      3249        2.0000           -0.3830262             -10.4227 (HOMO)
      3250                          0.0185745               0.5054 (LUMO)
      3251                          0.0199525               0.5429
      3252                          0.0201439               0.5481
      3253                          0.0201956               0.5496
      3254                          0.0206565               0.5621
       ...                                ...                  ...
      6498                          0.3730462              10.1511
      -------------------------------------------------------------
                  HL-Gap            0.4016007 Eh           10.9281 eV
             Fermi-level           -0.1822259 Eh           -4.9586 eV

 SCC (total)                   0 d,  0 h,  7 min, 11.509 sec
 SCC setup                      ...        0 min,  1.736 sec (  0.402%)
 Dispersion                     ...        0 min,  3.905 sec (  0.905%)
 classical contributions        ...        0 min,  0.145 sec (  0.034%)
 integral evaluation            ...        0 min,  6.025 sec (  1.396%)
 iterations                     ...        3 min,  4.765 sec ( 42.818%)
 molecular gradient             ...        3 min, 46.511 sec ( 52.493%)
 printout                       ...        0 min,  8.423 sec (  1.952%)

         :::::::::::::::::::::::::::::::::::::::::::::::::::::
         ::                     SUMMARY                     ::
         :::::::::::::::::::::::::::::::::::::::::::::::::::::
         :: total energy           -3426.764619120105 Eh    ::
         :: total w/o Gsasa/hb     -3426.669047832338 Eh    ::
         :: gradient norm              0.631627440828 Eh/a0 ::
         :: HOMO-LUMO gap             10.928110661074 eV    ::
         ::.................................................::
         :: SCC energy             -3472.162628468810 Eh    ::
         :: -> isotropic ES            0.284485447281 Eh    ::
         :: -> anisotropic ES          1.275310469841 Eh    ::
         :: -> anisotropic XC          2.135547944000 Eh    ::
         :: -> dispersion             -4.178343611025 Eh    ::
         :: -> Gsolv                  -0.032400611298 Eh    ::
         ::    -> Gelec                0.063170676468 Eh    ::
         ::    -> Gsasa               -0.093052146527 Eh    ::
         ::    -> Ghb                 -0.004376584366 Eh    ::
         ::    -> Gshift               0.001857443127 Eh    ::
         :: repulsion energy          44.726933478037 Eh    ::
         :: add. restraining           0.000000000000 Eh    ::
         :: total charge              -0.000000000009 e     ::
         :::::::::::::::::::::::::::::::::::::::::::::::::::::

      ----------------------------------------------------------- 
     |              Fast Inertial Relaxation Engine              |
      ----------------------------------------------------------- 

          ...................................................
          :                      SETUP                      :
          :.................................................:
          :   energy convergence        0.5000000E-05 Eh    :
          :   grad. convergence         0.1000000E-02 Eh/a0 :
          :   optimization log               true           :
          :   writing optlog all                1     steps :
          :   Hessian reset                    20     steps :
          :   time step scaling                 5     steps :
          :   maximium step len.        1.0000000     a0    :
          :   initial time step         0.2500000     fs    :
          :   maximum time step         1.2500000     fs    :
          :   power reset thr           0.0000000     au    :
          :   alpha parameter           0.1000000           :
          :   BFGS update                   false           :
          :   preconditioning               false           :
          ...................................................

........................................................................
.............................. CYCLE    1 ..............................
........................................................................

 iter      E             dE          RMSdq      gap      omega  full diag
   1  -3472.3963129 -0.347240E+04  0.742E-03   10.93       0.0  T
   2  -3472.3963571 -0.442413E-04  0.389E-03   10.93       1.0  T
   3  -3472.3963575 -0.413414E-06  0.181E-03   10.93       1.0  T
   4  -3472.3963577 -0.142124E-06  0.217E-04   10.93       8.1  T
   5  -3472.3963577 -0.338450E-07  0.136E-04   10.93      12.9  T
     SCC iter.                  ...        4 min, 55.018 sec
     gradient                   ...        3 min, 47.016 sec
 * total energy  : -3426.8099592 Eh     change    :  -0.4534011E-01 Eh
   gradient norm :     0.5979598 Eh/a0  converged?    E=F G=F D=F
   time step     :     0.2500000 fs     power     :   0.2339840E-05
   step length   :     0.0740254 a0     speed     :   0.7162354E-02

........................................................................
.............................. CYCLE    2 ..............................
........................................................................

 iter      E             dE          RMSdq      gap      omega  full diag
   1  -3472.7406684 -0.347274E+04  0.109E-02   10.94       0.0  T
   2  -3472.7407632 -0.947177E-04  0.569E-03   10.94       1.0  T
   3  -3472.7407641 -0.939677E-06  0.265E-03   10.94       1.0  T
   4  -3472.7407644 -0.338289E-06  0.333E-04   10.94       5.3  T
   5  -3472.7407645 -0.783170E-07  0.214E-04   10.94       8.2  T
     SCC iter.                  ...        4 min, 56.323 sec
     gradient                   ...        3 min, 47.039 sec
 * total energy  : -3426.8723261 Eh     change    :  -0.6236689E-01 Eh
   gradient norm :     0.5494228 Eh/a0  converged?    E=F G=F D=F
   time step     :     0.2500000 fs     power     :   0.3165799E-05
   step length   :     0.1089590 a0     speed     :   0.1054237E-01

........................................................................
.............................. CYCLE    3 ..............................
........................................................................

 iter      E             dE          RMSdq      gap      omega  full diag
   1  -3473.1865739 -0.347319E+04  0.139E-02   10.94       0.0  T
   2  -3473.1867280 -0.154086E-03  0.730E-03   10.94       1.0  T
   3  -3473.1867296 -0.161193E-05  0.338E-03   10.94       1.0  T
   4  -3473.1867302 -0.574415E-06  0.435E-04   10.94       4.0  T
   5  -3473.1867303 -0.129811E-06  0.281E-04   10.94       6.2  T
     SCC iter.                  ...        4 min, 58.212 sec
     gradient                   ...        3 min, 45.393 sec
 * total energy  : -3426.9452309 Eh     change    :  -0.7290479E-01 Eh
   gradient norm :     0.4888184 Eh/a0  converged?    E=F G=F D=F
   time step     :     0.2500000 fs     power     :   0.3629668E-05
   step length   :     0.1410444 a0     speed     :   0.1364680E-01

........................................................................
.............................. CYCLE    4 ..............................
........................................................................

 iter      E             dE          RMSdq      gap      omega  full diag
   1  -3473.7224577 -0.347372E+04  0.165E-02   10.94       0.0  T
   2  -3473.7226700 -0.212331E-03  0.864E-03   10.94       1.0  T
   3  -3473.7226724 -0.238381E-05  0.396E-03   10.94       1.0  T
   4  -3473.7226732 -0.822788E-06  0.526E-04   10.94       3.3  T
   5  -3473.7226734 -0.179711E-06  0.339E-04   10.94       5.2  T
     SCC iter.                  ...        4 min, 55.101 sec
     gradient                   ...        3 min, 46.136 sec
 * total energy  : -3427.0213789 Eh     change    :  -0.7614803E-01 Eh
   gradient norm :     0.4205867 Eh/a0  converged?    E=F G=F D=F
   time step     :     0.2500000 fs     power     :   0.3701932E-05
   step length   :     0.1694280 a0     speed     :   0.1639307E-01

........................................................................
.............................. CYCLE    5 ..............................
........................................................................

 iter      E             dE          RMSdq      gap      omega  full diag
   1  -3474.3343990 -0.347433E+04  0.185E-02   10.94       0.0  T
   2  -3474.3346576 -0.258684E-03  0.967E-03   10.94       1.0  T
   3  -3474.3346608 -0.320424E-05  0.436E-03   10.94       1.0  T
   4  -3474.3346619 -0.105224E-05  0.603E-04   10.94       2.9  T
   5  -3474.3346621 -0.218231E-06  0.386E-04   10.94       4.5  T
   6  -3474.3346622 -0.110213E-06  0.158E-04   10.94      11.1  T
     SCC iter.                  ...        5 min, 49.353 sec
     gradient                   ...        3 min, 46.660 sec
 * total energy  : -3427.0937100 Eh     change    :  -0.7233103E-01 Eh
   gradient norm :     0.3514827 Eh/a0  converged?    E=F G=F D=F
   time step     :     0.2500000 fs     power     :   0.3411991E-05
   step length   :     0.1933783 a0     speed     :   0.1871039E-01

........................................................................
.............................. CYCLE    6 ..............................
........................................................................

 iter      E             dE          RMSdq      gap      omega  full diag
   1  -3475.0794313 -0.347508E+04  0.219E-02   10.94       0.0  T
   2  -3475.0797775 -0.346279E-03  0.115E-02   10.94       1.0  T
   3  -3475.0797824 -0.489008E-05  0.504E-03   10.94       1.0  T
   4  -3475.0797839 -0.145266E-05  0.728E-04   10.94       2.4  T
   5  -3475.0797842 -0.279919E-06  0.455E-04   10.94       3.8  T
   6  -3475.0797843 -0.126906E-06  0.170E-04   10.94      10.3  T
     SCC iter.                  ...        5 min, 58.182 sec
     gradient                   ...        3 min, 46.434 sec
 * total energy  : -3427.1623990 Eh     change    :  -0.6868907E-01 Eh
   gradient norm :     0.2851492 Eh/a0  converged?    E=F G=F D=F
   time step     :     0.2750000 fs     power     :   0.2768186E-05
   step length   :     0.2356108 a0     speed     :   0.2072419E-01

........................................................................
.............................. CYCLE    7 ..............................
........................................................................

 iter      E             dE          RMSdq      gap      omega  full diag
   1  -3475.9518460 -0.347595E+04  0.250E-02   10.94       0.0  T
   2  -3475.9522526 -0.406554E-03  0.131E-02   10.94       1.0  T
   3  -3475.9522598 -0.718351E-05  0.547E-03   10.94       1.0  T
   4  -3475.9522617 -0.190837E-05  0.860E-04   10.93       2.0  T
   5  -3475.9522620 -0.319339E-06  0.529E-04   10.93       3.3  T
   6  -3475.9522621 -0.144204E-06  0.177E-04   10.93       9.9  T
     SCC iter.                  ...        5 min, 56.977 sec
     gradient                   ...        3 min, 45.618 sec
 * total energy  : -3427.2193676 Eh     change    :  -0.5696859E-01 Eh
   gradient norm :     0.2419469 Eh/a0  converged?    E=F G=F D=F
   time step     :     0.3025000 fs     power     :   0.1869161E-05
   step length   :     0.2775418 a0     speed     :   0.2219311E-01

........................................................................
.............................. CYCLE    8 ..............................
........................................................................

 iter      E             dE          RMSdq      gap      omega  full diag
   1  -3476.9148975 -0.347691E+04  0.273E-02   10.94       0.0  T
   2  -3476.9152865 -0.388973E-03  0.144E-02   10.93       1.0  T
   3  -3476.9152963 -0.978968E-05  0.539E-03   10.93       1.0  T
   4  -3476.9152985 -0.217704E-05  0.970E-04   10.93       1.8  T
   5  -3476.9152988 -0.291903E-06  0.579E-04   10.93       3.0  T
   6  -3476.9152989 -0.136357E-06  0.164E-04   10.93      10.7  T
     SCC iter.                  ...        5 min, 52.660 sec
     gradient                   ...        3 min, 46.042 sec
 * total energy  : -3427.2592855 Eh     change    :  -0.3991787E-01 Eh
   gradient norm :     0.2373666 Eh/a0  converged?    E=F G=F D=F
   time step     :     0.3327500 fs     power     :   0.9591772E-06
   step length   :     0.3132013 a0     speed     :   0.2276777E-01

........................................................................
.............................. CYCLE    9 ..............................
........................................................................

 iter      E             dE          RMSdq      gap      omega  full diag
   1  -3477.8921909 -0.347789E+04  0.289E-02   10.93       0.0  T
   2  -3477.8924677 -0.276742E-03  0.157E-02   10.93       1.0  T
   3  -3477.8924797 -0.120078E-04  0.455E-03   10.93       1.0  T
   4  -3477.8924817 -0.198396E-05  0.103E-03   10.93       1.7  T
   5  -3477.8924819 -0.188878E-06  0.579E-04   10.93       3.0  T
   6  -3477.8924820 -0.101920E-06  0.127E-04   10.93      13.8  T
     SCC iter.                  ...        5 min, 50.985 sec
     gradient                   ...        3 min, 45.704 sec
 * total energy  : -3427.2829547 Eh     change    :  -0.2366922E-01 Eh
   gradient norm :     0.2522428 Eh/a0  converged?    E=F G=F D=F
   time step     :     0.3660250 fs     power     :   0.3004326E-06
   step length   :     0.3369118 a0     speed     :   0.2226489E-01

........................................................................
.............................. CYCLE   10 ..............................
........................................................................

 iter      E             dE          RMSdq      gap      omega  full diag
   1  -3478.7903429 -0.347879E+04  0.309E-02   10.93       0.0  T
   2  -3478.7904738 -0.130961E-03  0.175E-02   10.93       1.0  T
   3  -3478.7904870 -0.131137E-04  0.295E-03   10.93       1.0  T
   4  -3478.7904884 -0.145498E-05  0.104E-03   10.92       1.7  T
   5  -3478.7904885 -0.661325E-07  0.512E-04   10.92       3.4  T
   6  -3478.7904885 -0.640184E-07  0.737E-05   10.92      23.8  T
     SCC iter.                  ...        5 min, 53.317 sec
     gradient                   ...        3 min, 47.723 sec
 * total energy  : -3427.2952920 Eh     change    :  -0.1233725E-01 Eh
   gradient norm :     0.2524990 Eh/a0  converged?    E=F G=F D=F
   time step     :     0.4026275 fs     power     :  -0.7592512E-07
   step length   :     0.3500353 a0     speed     :   0.2102923E-01

........................................................................
.............................. CYCLE   11 ..............................
........................................................................
 * reset velocities

 iter      E             dE          RMSdq      gap      omega  full diag
   1  -3478.7733381 -0.347877E+04  0.116E-03   10.92       0.0  T
   2  -3478.7733389 -0.796499E-06  0.668E-04   10.92       2.6  T
   3  -3478.7733389 -0.424916E-08  0.267E-04   10.92       6.6  T
     SCC iter.                  ...        2 min, 57.115 sec
     gradient                   ...        3 min, 46.540 sec
 * total energy  : -3427.2976806 Eh     change    :  -0.2388577E-02 Eh
   gradient norm :     0.2454206 Eh/a0  converged?    E=F G=F D=F
   time step     :     0.2013138 fs     power     :   0.1552035E-06
   step length   :     0.0095944 a0     speed     :   0.1152810E-02

........................................................................
.............................. CYCLE   12 ..............................
........................................................................

 iter      E             dE          RMSdq      gap      omega  full diag
   1  -3478.7394793 -0.347874E+04  0.229E-03   10.92       0.0  T
   2  -3478.7394824 -0.308035E-05  0.132E-03   10.92       1.3  T
   3  -3478.7394824 -0.173118E-07  0.525E-04   10.92       3.3  T
   4  -3478.7394824 -0.779892E-08  0.422E-05   10.92      41.6  T
     SCC iter.                  ...        3 min, 57.328 sec
     gradient                   ...        3 min, 45.824 sec
 * total energy  : -3427.3021925 Eh     change    :  -0.4511913E-02 Eh
   gradient norm :     0.2315484 Eh/a0  converged?    E=F G=F D=F
   time step     :     0.2013138 fs     power     :   0.2887272E-06
   step length   :     0.0189197 a0     speed     :   0.2273294E-02

........................................................................
.............................. CYCLE   13 ..............................
........................................................................

 iter      E             dE          RMSdq      gap      omega  full diag
   1  -3478.6897922 -0.347869E+04  0.334E-03   10.92       0.0  T
   2  -3478.6897989 -0.666769E-05  0.192E-03   10.92       1.0  T
   3  -3478.6897989 -0.421837E-07  0.774E-04   10.92       2.3  T
   4  -3478.6897989 -0.209261E-07  0.699E-05   10.92      25.1  T
     SCC iter.                  ...        4 min,  2.471 sec
     gradient                   ...        3 min, 46.135 sec
 * total energy  : -3427.3083290 Eh     change    :  -0.6136569E-02 Eh
   gradient norm :     0.2113365 Eh/a0  converged?    E=F G=F D=F
   time step     :     0.2013138 fs     power     :   0.3859283E-06
   step length   :     0.0277172 a0     speed     :   0.3330362E-02

........................................................................
.............................. CYCLE   14 ..............................
........................................................................

 iter      E             dE          RMSdq      gap      omega  full diag
   1  -3478.6255975 -0.347863E+04  0.430E-03   10.92       0.0  T
   2  -3478.6256086 -0.110955E-04  0.247E-03   10.93       1.0  T
   3  -3478.6256087 -0.729897E-07  0.999E-04   10.93       1.8  T
   4  -3478.6256087 -0.368682E-07  0.933E-05   10.93      18.8  T
     SCC iter.                  ...        3 min, 59.875 sec
     gradient                   ...        3 min, 44.884 sec
 * total energy  : -3427.3154165 Eh     change    :  -0.7087426E-02 Eh
   gradient norm :     0.1855211 Eh/a0  converged?    E=F G=F D=F
   time step     :     0.2013138 fs     power     :   0.4364472E-06
   step length   :     0.0357441 a0     speed     :   0.4294825E-02

........................................................................
.............................. CYCLE   15 ..............................
........................................................................

 iter      E             dE          RMSdq      gap      omega  full diag
   1  -3478.5486575 -0.347855E+04  0.512E-03   10.93       0.0  T
   2  -3478.5486734 -0.158814E-04  0.295E-03   10.93       1.0  T
   3  -3478.5486735 -0.105969E-06  0.120E-03   10.93       1.5  T
   4  -3478.5486735 -0.540467E-07  0.113E-04   10.93      15.5  T
   5  -3478.5486736 -0.148243E-07  0.757E-05   10.93      23.2  T
     SCC iter.                  ...        4 min, 53.532 sec
     gradient                   ...        3 min, 46.093 sec
 * total energy  : -3427.3226856 Eh     change    :  -0.7269171E-02 Eh
   gradient norm :     0.1551086 Eh/a0  converged?    E=F G=F D=F
   time step     :     0.2013138 fs     power     :   0.4354323E-06
   step length   :     0.0427815 a0     speed     :   0.5140413E-02

........................................................................
.............................. CYCLE   16 ..............................
........................................................................

 iter      E             dE          RMSdq      gap      omega  full diag
   1  -3478.4611979 -0.347846E+04  0.578E-03   10.93       0.0  T
   2  -3478.4612183 -0.204483E-04  0.333E-03   10.93       1.0  T
   3  -3478.4612184 -0.127442E-06  0.136E-03   10.93       1.3  T
   4  -3478.4612185 -0.626369E-07  0.122E-04   10.93      14.4  T
   5  -3478.4612185 -0.175314E-07  0.791E-05   10.93      22.2  T
     SCC iter.                  ...        4 min, 55.548 sec
     gradient                   ...        3 min, 46.255 sec
 * total energy  : -3427.3293642 Eh     change    :  -0.6678519E-02 Eh
   gradient norm :     0.1215613 Eh/a0  converged?    E=F G=F D=F
   time step     :     0.2013138 fs     power     :   0.3843388E-06
   step length   :     0.0486392 a0     speed     :   0.5844237E-02

........................................................................
.............................. CYCLE   17 ..............................
........................................................................

 iter      E             dE          RMSdq      gap      omega  full diag
   1  -3478.3555518 -0.347836E+04  0.693E-03   10.93       0.0  T
   2  -3478.3555815 -0.297695E-04  0.400E-03   10.93       1.0  T
   3  -3478.3555817 -0.180928E-06  0.164E-03   10.93       1.1  T
   4  -3478.3555818 -0.877903E-07  0.144E-04   10.93      12.1  T
   5  -3478.3555818 -0.250757E-07  0.922E-05   10.93      19.0  T
     SCC iter.                  ...        4 min, 54.283 sec
     gradient                   ...        3 min, 45.970 sec
 * total energy  : -3427.3352463 Eh     change    :  -0.5882161E-02 Eh
   gradient norm :     0.0837178 Eh/a0  converged?    E=F G=F D=F
   time step     :     0.2214451 fs     power     :   0.2791239E-06
   step length   :     0.0589687 a0     speed     :   0.6441256E-02

........................................................................
.............................. CYCLE   18 ..............................
........................................................................

 iter      E             dE          RMSdq      gap      omega  full diag
   1  -3478.2335777 -0.347823E+04  0.794E-03   10.93       0.0  T
   2  -3478.2336175 -0.397569E-04  0.459E-03   10.93       1.0  T
   3  -3478.2336177 -0.239365E-06  0.190E-03   10.93       1.0  T
   4  -3478.2336178 -0.114442E-06  0.166E-04   10.93      10.6  T
   5  -3478.2336179 -0.334480E-07  0.104E-04   10.93      16.9  T
     SCC iter.                  ...        4 min, 53.885 sec
     gradient                   ...        3 min, 51.217 sec
 * total energy  : -3427.3391747 Eh     change    :  -0.3928422E-02 Eh
   gradient norm :     0.0509987 Eh/a0  converged?    E=F G=F D=F
   time step     :     0.2435896 fs     power     :   0.1257392E-06
   step length   :     0.0689953 a0     speed     :   0.6851346E-02

........................................................................
.............................. CYCLE   19 ..............................
........................................................................

 iter      E             dE          RMSdq      gap      omega  full diag
   1  -3478.1052276 -0.347811E+04  0.833E-03   10.93       0.0  T
   2  -3478.1052723 -0.447095E-04  0.484E-03   10.93       1.0  T
   3  -3478.1052726 -0.271936E-06  0.202E-03   10.93       1.0  T
   4  -3478.1052727 -0.125605E-06  0.176E-04   10.93      10.0  T
   5  -3478.1052727 -0.377768E-07  0.106E-04   10.93      16.5  T
     SCC iter.                  ...        4 min, 49.749 sec
     gradient                   ...        3 min, 46.773 sec
 * total energy  : -3427.3402121 Eh     change    :  -0.1037360E-02 Eh
   gradient norm :     0.0557104 Eh/a0  converged?    E=F G=F D=F
   time step     :     0.2679486 fs     power     :  -0.3835806E-07
   step length   :     0.0760320 a0     speed     :   0.6863727E-02

........................................................................
.............................. CYCLE   20 ..............................
........................................................................
 * reset velocities

 iter      E             dE          RMSdq      gap      omega  full diag
   1  -3478.1064830 -0.347811E+04  0.118E-04   10.93       0.0  T
   2  -3478.1064830 -0.501268E-08  0.748E-05   10.93      23.4  T
   3  -3478.1064830 -0.277259E-08  0.317E-05   10.93      55.4  T
     SCC iter.                  ...        2 min, 55.195 sec
     gradient                   ...        3 min, 48.163 sec
 * total energy  : -3427.3402642 Eh     change    :  -0.5207530E-04 Eh
   gradient norm :     0.0553685 Eh/a0  converged?    E=F G=F D=T
   time step     :     0.1339743 fs     power     :   0.5141332E-08
   step length   :     0.0009375 a0     speed     :   0.1692709E-03
 * RMSD in coord.:     0.0347810 a0     energy gain  -0.5756451E+00 Eh

........................................................................
.............................. CYCLE   21 ..............................
........................................................................

 iter      E             dE          RMSdq      gap      omega  full diag
   1  -3478.1128912 -0.347811E+04  0.552E-04   10.93       0.0  T
   2  -3478.1128913 -0.813302E-07  0.314E-04   10.93       5.6  T
   3  -3478.1128913 -0.846740E-09  0.823E-05   10.93      21.3  T
     SCC iter.                  ...        2 min, 56.146 sec
     gradient                   ...        3 min, 54.231 sec
 * total energy  : -3427.3405364 Eh     change    :  -0.2722762E-03 Eh
   gradient norm :     0.0537071 Eh/a0  converged?    E=F G=F D=F
   time step     :     0.2500000 fs     power     :   0.1422743E-07
   step length   :     0.0049940 a0     speed     :   0.4831948E-03

........................................................................
.............................. CYCLE   22 ..............................
........................................................................

 iter      E             dE          RMSdq      gap      omega  full diag
   1  -3478.1231555 -0.347812E+04  0.898E-04   10.93       0.0  T
   2  -3478.1231557 -0.207984E-06  0.512E-04   10.93       3.4  T
   3  -3478.1231557 -0.380851E-08  0.132E-04   10.93      13.3  T
     SCC iter.                  ...        3 min,  5.577 sec
     gradient                   ...        3 min, 46.287 sec
 * total energy  : -3427.3409627 Eh     change    :  -0.4262988E-03 Eh
   gradient norm :     0.0511872 Eh/a0  converged?    E=F G=F D=F
   time step     :     0.2500000 fs     power     :   0.2205138E-07
   step length   :     0.0081399 a0     speed     :   0.7875813E-03

........................................................................
.............................. CYCLE   23 ..............................
........................................................................

 iter      E             dE          RMSdq      gap      omega  full diag
   1  -3478.1367889 -0.347814E+04  0.121E-03   10.93       0.0  T
   2  -3478.1367893 -0.363756E-06  0.689E-04   10.93       2.5  T
   3  -3478.1367893 -0.830732E-08  0.175E-04   10.93      10.0  T
     SCC iter.                  ...        3 min,  0.738 sec
     gradient                   ...        3 min, 46.879 sec
 * total energy  : -3427.3415129 Eh     change    :  -0.5501797E-03 Eh
   gradient norm :     0.0481221 Eh/a0  converged?    E=F G=F D=F
   time step     :     0.2500000 fs     power     :   0.2818084E-07
   step length   :     0.0111322 a0     speed     :   0.1077097E-02

........................................................................
.............................. CYCLE   24 ..............................
........................................................................

 iter      E             dE          RMSdq      gap      omega  full diag
   1  -3478.1531084 -0.347815E+04  0.148E-03   10.93       0.0  T
   2  -3478.1531089 -0.512227E-06  0.841E-04   10.93       2.1  T
   3  -3478.1531089 -0.137011E-07  0.207E-04   10.93       8.5  T
     SCC iter.                  ...        2 min, 59.054 sec
     gradient                   ...        3 min, 46.818 sec
 * total energy  : -3427.3421529 Eh     change    :  -0.6399877E-03 Eh
   gradient norm :     0.0449417 Eh/a0  converged?    E=F G=F D=F
   time step     :     0.2500000 fs     power     :   0.3250291E-07
   step length   :     0.0139269 a0     speed     :   0.1347502E-02

........................................................................
.............................. CYCLE   25 ..............................
........................................................................

 iter      E             dE          RMSdq      gap      omega  full diag
   1  -3478.1712389 -0.347817E+04  0.169E-03   10.93       0.0  T
   2  -3478.1712395 -0.614748E-06  0.962E-04   10.93       1.8  T
   3  -3478.1712395 -0.191744E-07  0.226E-04   10.93       7.8  T
     SCC iter.                  ...        3 min,  1.451 sec
     gradient                   ...        3 min, 46.562 sec
 * total energy  : -3427.3428515 Eh     change    :  -0.6985834E-03 Eh
   gradient norm :     0.0421348 Eh/a0  converged?    E=F G=F D=F
   time step     :     0.2500000 fs     power     :   0.3526240E-07
   step length   :     0.0164944 a0     speed     :   0.1595920E-02

........................................................................
.............................. CYCLE   26 ..............................
........................................................................

 iter      E             dE          RMSdq      gap      omega  full diag
   1  -3478.1921935 -0.347819E+04  0.203E-03   10.93       0.0  T
   2  -3478.1921943 -0.785197E-06  0.116E-03   10.93       1.5  T
   3  -3478.1921943 -0.283580E-07  0.252E-04   10.93       6.9  T
   4  -3478.1921943 -0.109317E-07  0.604E-05   10.93      29.0  T
     SCC iter.                  ...        4 min,  3.086 sec
     gradient                   ...        3 min, 48.891 sec
 * total energy  : -3427.3436665 Eh     change    :  -0.8149723E-03 Eh
   gradient norm :     0.0399631 Eh/a0  converged?    E=F G=F D=F
   time step     :     0.2750000 fs     power     :   0.3711522E-07
   step length   :     0.0209672 a0     speed     :   0.1844259E-02

........................................................................
.............................. CYCLE   27 ..............................
........................................................................

 iter      E             dE          RMSdq      gap      omega  full diag
   1  -3478.2148160 -0.347821E+04  0.235E-03   10.93       0.0  T
   2  -3478.2148168 -0.862441E-06  0.135E-03   10.93       1.3  T
   3  -3478.2148169 -0.356390E-07  0.260E-04   10.93       6.7  T
   4  -3478.2148169 -0.144391E-07  0.674E-05   10.93      26.0  T
     SCC iter.                  ...        4 min,  1.730 sec
     gradient                   ...        3 min, 47.730 sec
 * total energy  : -3427.3446031 Eh     change    :  -0.9366173E-03 Eh
   gradient norm :     0.0389387 Eh/a0  converged?    E=F G=F D=F
   time step     :     0.3025000 fs     power     :   0.3869607E-07
   step length   :     0.0261224 a0     speed     :   0.2088829E-02

........................................................................
.............................. CYCLE   28 ..............................
........................................................................

 iter      E             dE          RMSdq      gap      omega  full diag
   1  -3478.2371123 -0.347824E+04  0.261E-03   10.93       0.0  T
   2  -3478.2371130 -0.746382E-06  0.150E-03   10.93       1.2  T
   3  -3478.2371130 -0.448226E-07  0.236E-04   10.93       7.4  T
   4  -3478.2371131 -0.175392E-07  0.744E-05   10.93      23.6  T
     SCC iter.                  ...        4 min,  4.480 sec
     gradient                   ...        3 min, 47.863 sec
 * total energy  : -3427.3456893 Eh     change    :  -0.1086212E-02 Eh
   gradient norm :     0.0389761 Eh/a0  converged?    E=F G=F D=F
   time step     :     0.3327500 fs     power     :   0.4105739E-07
   step length   :     0.0320489 a0     speed     :   0.2329752E-02

........................................................................
.............................. CYCLE   29 ..............................
........................................................................

 iter      E             dE          RMSdq      gap      omega  full diag
   1  -3478.2564528 -0.347826E+04  0.281E-03   10.93       0.0  T
   2  -3478.2564533 -0.479961E-06  0.162E-03   10.93       1.1  T
   3  -3478.2564533 -0.514488E-07  0.189E-04   10.93       9.3  T
   4  -3478.2564533 -0.208988E-07  0.786E-05   10.93      22.3  T
     SCC iter.                  ...        3 min, 55.715 sec
     gradient                   ...        3 min, 46.272 sec
 * total energy  : -3427.3469831 Eh     change    :  -0.1293799E-02 Eh
   gradient norm :     0.0392027 Eh/a0  converged?    E=F G=F D=F
   time step     :     0.3660250 fs     power     :   0.4496027E-07
   step length   :     0.0389733 a0     speed     :   0.2575561E-02

........................................................................
.............................. CYCLE   30 ..............................
........................................................................

 iter      E             dE          RMSdq      gap      omega  full diag
   1  -3478.2700979 -0.347827E+04  0.300E-03   10.93       0.0  T
   2  -3478.2700981 -0.291083E-06  0.176E-03   10.93       1.0  T
   3  -3478.2700982 -0.536643E-07  0.156E-04   10.93      11.3  T
   4  -3478.2700982 -0.258106E-07  0.795E-05   10.93      22.0  T
     SCC iter.                  ...        4 min,  1.524 sec
     gradient                   ...        3 min, 47.313 sec
 * total energy  : -3427.3485564 Eh     change    :  -0.1573348E-02 Eh
   gradient norm :     0.0382323 Eh/a0  converged?    E=F G=F D=F
   time step     :     0.4026275 fs     power     :   0.5002327E-07
   step length   :     0.0472994 a0     speed     :   0.2841626E-02

........................................................................
.............................. CYCLE   31 ..............................
........................................................................

 iter      E             dE          RMSdq      gap      omega  full diag
   1  -3478.2760956 -0.347828E+04  0.330E-03   10.93       0.0  T
   2  -3478.2760961 -0.548291E-06  0.195E-03   10.93       1.0  T
   3  -3478.2760962 -0.527066E-07  0.173E-04   10.93      10.1  T
   4  -3478.2760962 -0.320824E-07  0.755E-05   10.93      23.2  T
     SCC iter.                  ...        3 min, 58.132 sec
     gradient                   ...        3 min, 45.685 sec
 * total energy  : -3427.3504463 Eh     change    :  -0.1889842E-02 Eh
   gradient norm :     0.0351069 Eh/a0  converged?    E=F G=F D=F
   time step     :     0.4428903 fs     power     :   0.5424641E-07
   step length   :     0.0575058 a0     speed     :   0.3140731E-02

........................................................................
.............................. CYCLE   32 ..............................
........................................................................

 iter      E             dE          RMSdq      gap      omega  full diag
   1  -3478.2747976 -0.347827E+04  0.376E-03   10.93       0.0  T
   2  -3478.2747990 -0.144025E-05  0.226E-03   10.93       1.0  T
   3  -3478.2747991 -0.603791E-07  0.258E-04   10.93       6.8  T
   4  -3478.2747991 -0.368509E-07  0.773E-05   10.93      22.7  T
     SCC iter.                  ...        3 min, 55.606 sec
     gradient                   ...        3 min, 45.022 sec
 * total energy  : -3427.3525982 Eh     change    :  -0.2151882E-02 Eh
   gradient norm :     0.0304934 Eh/a0  converged?    E=F G=F D=F
   time step     :     0.4871793 fs     power     :   0.5490834E-07
   step length   :     0.0699140 a0     speed     :   0.3471288E-02

........................................................................
.............................. CYCLE   33 ..............................
........................................................................

 iter      E             dE          RMSdq      gap      omega  full diag
   1  -3478.2711495 -0.347827E+04  0.433E-03   10.93       0.0  T
   2  -3478.2711518 -0.233023E-05  0.261E-03   10.93       1.0  T
   3  -3478.2711519 -0.736968E-07  0.327E-04   10.93       5.4  T
   4  -3478.2711520 -0.403365E-07  0.813E-05   10.93      21.6  T
     SCC iter.                  ...        3 min, 54.994 sec
     gradient                   ...        3 min, 46.255 sec
 * total energy  : -3427.3548758 Eh     change    :  -0.2277592E-02 Eh
   gradient norm :     0.0275138 Eh/a0  converged?    E=F G=F D=F
   time step     :     0.5358972 fs     power     :   0.5138429E-07
   step length   :     0.0844277 a0     speed     :   0.3810822E-02

........................................................................
.............................. CYCLE   34 ..............................
........................................................................

 iter      E             dE          RMSdq      gap      omega  full diag
   1  -3478.2766152 -0.347828E+04  0.489E-03   10.93       0.0  T
   2  -3478.2766170 -0.183375E-05  0.294E-03   10.93       1.0  T
   3  -3478.2766171 -0.930445E-07  0.247E-04   10.93       7.1  T
   4  -3478.2766172 -0.389964E-07  0.851E-05   10.93      20.6  T
     SCC iter.                  ...        4 min,  3.437 sec
     gradient                   ...        3 min, 46.036 sec
 * total energy  : -3427.3572091 Eh     change    :  -0.2333380E-02 Eh
   gradient norm :     0.0279763 Eh/a0  converged?    E=F G=F D=F
   time step     :     0.5894869 fs     power     :   0.4753685E-07
   step length   :     0.1002747 a0     speed     :   0.4114642E-02

........................................................................
.............................. CYCLE   35 ..............................
........................................................................

 iter      E             dE          RMSdq      gap      omega  full diag
   1  -3478.3046263 -0.347830E+04  0.562E-03   10.93       0.0  T
   2  -3478.3046268 -0.490475E-06  0.332E-03   10.93       1.0  T
   3  -3478.3046269 -0.130931E-06  0.166E-04   10.93      10.5  T
   4  -3478.3046270 -0.250684E-07  0.927E-05   10.93      18.9  T
     SCC iter.                  ...        3 min, 56.895 sec
     gradient                   ...        3 min, 44.778 sec
 * total energy  : -3427.3597019 Eh     change    :  -0.2492795E-02 Eh
   gradient norm :     0.0273986 Eh/a0  converged?    E=F G=F D=F
   time step     :     0.6484356 fs     power     :   0.4673798E-07
   step length   :     0.1169416 a0     speed     :   0.4362318E-02

........................................................................
.............................. CYCLE   36 ..............................
........................................................................

 iter      E             dE          RMSdq      gap      omega  full diag
   1  -3478.3611095 -0.347836E+04  0.675E-03   10.93       0.0  T
   2  -3478.3611107 -0.120556E-05  0.391E-03   10.93       1.0  T
   3  -3478.3611109 -0.176261E-06  0.234E-04   10.93       7.5  T
   4  -3478.3611109 -0.202290E-07  0.104E-04   10.93      16.9  T
     SCC iter.                  ...        4 min,  3.941 sec
     gradient                   ...        3 min, 46.449 sec
 * total energy  : -3427.3623884 Eh     change    :  -0.2686452E-02 Eh
   gradient norm :     0.0232721 Eh/a0  converged?    E=F G=F D=F
   time step     :     0.7132792 fs     power     :   0.4482555E-07
   step length   :     0.1357215 a0     speed     :   0.4602612E-02

........................................................................
.............................. CYCLE   37 ..............................
........................................................................

 iter      E             dE          RMSdq      gap      omega  full diag
   1  -3478.4341635 -0.347843E+04  0.766E-03   10.93       0.0  T
   2  -3478.4341665 -0.294840E-05  0.440E-03   10.93       1.0  T
   3  -3478.4341667 -0.195349E-06  0.380E-04   10.93       4.6  T
   4  -3478.4341667 -0.301975E-07  0.109E-04   10.93      16.1  T
     SCC iter.                  ...        4 min,  0.246 sec
     gradient                   ...        3 min, 46.558 sec
 * total energy  : -3427.3650507 Eh     change    :  -0.2662345E-02 Eh
   gradient norm :     0.0228552 Eh/a0  converged?    E=F G=F D=F
   time step     :     0.7846071 fs     power     :   0.3866407E-07
   step length   :     0.1573280 a0     speed     :   0.4850302E-02

........................................................................
.............................. CYCLE   38 ..............................
........................................................................

 iter      E             dE          RMSdq      gap      omega  full diag
   1  -3478.4887034 -0.347849E+04  0.733E-03   10.94       0.0  T
   2  -3478.4887043 -0.871197E-06  0.426E-03   10.94       1.0  T
   3  -3478.4887044 -0.181602E-06  0.201E-04   10.94       8.7  T
   4  -3478.4887045 -0.187538E-07  0.958E-05   10.94      18.3  T
     SCC iter.                  ...        3 min, 57.883 sec
     gradient                   ...        3 min, 46.872 sec
 * total energy  : -3427.3677557 Eh     change    :  -0.2704947E-02 Eh
   gradient norm :     0.0248283 Eh/a0  converged?    E=F G=F D=F
   time step     :     0.8630678 fs     power     :   0.3692360E-07
   step length   :     0.1792579 a0     speed     :   0.5023987E-02

........................................................................
.............................. CYCLE   39 ..............................
........................................................................

 iter      E             dE          RMSdq      gap      omega  full diag
   1  -3478.5011659 -0.347850E+04  0.681E-03   10.94       0.0  T
   2  -3478.5011683 -0.239485E-05  0.408E-03   10.94       1.0  T
   3  -3478.5011685 -0.218639E-06  0.248E-04   10.94       7.1  T
   4  -3478.5011685 -0.285586E-07  0.119E-04   10.94      14.7  T
     SCC iter.                  ...        3 min, 57.720 sec
     gradient                   ...        3 min, 47.356 sec
 * total energy  : -3427.3707660 Eh     change    :  -0.3010294E-02 Eh
   gradient norm :     0.0216084 Eh/a0  converged?    E=F G=F D=F
   time step     :     0.9493746 fs     power     :   0.3717882E-07
   step length   :     0.2031125 a0     speed     :   0.5175045E-02

........................................................................
.............................. CYCLE   40 ..............................
........................................................................

 iter      E             dE          RMSdq      gap      omega  full diag
   1  -3478.4917604 -0.347849E+04  0.689E-03   10.94       0.0  T
   2  -3478.4917656 -0.522372E-05  0.414E-03   10.94       1.0  T
   3  -3478.4917659 -0.304525E-06  0.436E-04   10.94       4.0  T
   4  -3478.4917659 -0.540676E-07  0.160E-04   10.95      10.9  T
     SCC iter.                  ...        4 min,  5.033 sec
     gradient                   ...        3 min, 47.544 sec
 * total energy  : -3427.3739104 Eh     change    :  -0.3144385E-02 Eh
   gradient norm :     0.0238865 Eh/a0  converged?    E=F G=F D=F
   time step     :     1.0443120 fs     power     :   0.3454871E-07
   step length   :     0.2315342 a0     speed     :   0.5362903E-02

........................................................................
.............................. CYCLE   41 ..............................
........................................................................

 iter      E             dE          RMSdq      gap      omega  full diag
   1  -3478.5166556 -0.347852E+04  0.781E-03   10.95       0.0  T
   2  -3478.5166565 -0.947951E-06  0.457E-03   10.95       1.0  T
   3  -3478.5166568 -0.305059E-06  0.252E-04   10.95       7.0  T
   4  -3478.5166569 -0.337041E-07  0.148E-04   10.95      11.9  T
     SCC iter.                  ...        3 min, 57.479 sec
     gradient                   ...        3 min, 47.438 sec
 * total energy  : -3427.3775356 Eh     change    :  -0.3625233E-02 Eh
   gradient norm :     0.0217008 Eh/a0  converged?    E=F G=F D=F
   time step     :     1.1487432 fs     power     :   0.3798649E-07
   step length   :     0.2619426 a0     speed     :   0.5515670E-02

........................................................................
.............................. CYCLE   42 ..............................
........................................................................

 iter      E             dE          RMSdq      gap      omega  full diag
   1  -3478.5700273 -0.347857E+04  0.925E-03   10.96       0.0  T
   2  -3478.5700310 -0.373075E-05  0.537E-03   10.96       1.0  T
   3  -3478.5700313 -0.297204E-06  0.388E-04   10.96       4.5  T
   4  -3478.5700314 -0.425393E-07  0.132E-04   10.96      13.2  T
     SCC iter.                  ...        4 min,  0.703 sec
     gradient                   ...        3 min, 52.024 sec
 * total energy  : -3427.3814604 Eh     change    :  -0.3924802E-02 Eh
   gradient norm :     0.0221428 Eh/a0  converged?    E=F G=F D=F
   time step     :     1.2500000 fs     power     :   0.3567343E-07
   step length   :     0.2967386 a0     speed     :   0.5742211E-02
 * RMSD in coord.:     0.0343687 a0     energy gain  -0.4119622E-01 Eh

........................................................................
.............................. CYCLE   43 ..............................
........................................................................

 iter      E             dE          RMSdq      gap      omega  full diag
   1  -3478.5734485 -0.347857E+04  0.152E-03   10.96       0.0  T
   2  -3478.5734485 -0.434079E-07  0.891E-04   10.96       2.0  T
   3  -3478.5734485 -0.119776E-07  0.535E-05   10.96      32.7  T
     SCC iter.                  ...        2 min, 58.963 sec
     gradient                   ...        3 min, 48.567 sec
 * total energy  : -3427.3822116 Eh     change    :  -0.7512402E-03 Eh
   gradient norm :     0.0219580 Eh/a0  converged?    E=F G=F D=F
   time step     :     0.2500000 fs     power     :   0.3914187E-07
   step length   :     0.0574490 a0     speed     :   0.5558498E-02

........................................................................
.............................. CYCLE   44 ..............................
........................................................................

 iter      E             dE          RMSdq      gap      omega  full diag
   1  -3478.5704281 -0.347857E+04  0.146E-03   10.96       0.0  T
   2  -3478.5704283 -0.189464E-06  0.860E-04   10.96       2.0  T
   3  -3478.5704283 -0.125315E-07  0.876E-05   10.96      20.0  T
     SCC iter.                  ...        3 min,  6.644 sec
     gradient                   ...        3 min, 50.318 sec
 * total energy  : -3427.3830117 Eh     change    :  -0.8000268E-03 Eh
   gradient norm :     0.0202527 Eh/a0  converged?    E=F G=F D=F
   time step     :     0.2500000 fs     power     :   0.4149885E-07
   step length   :     0.0561055 a0     speed     :   0.5428508E-02

........................................................................
.............................. CYCLE   45 ..............................
........................................................................

 iter      E             dE          RMSdq      gap      omega  full diag
   1  -3478.5628497 -0.347856E+04  0.159E-03   10.96       0.0  T
   2  -3478.5628502 -0.431494E-06  0.932E-04   10.96       1.9  T
   3  -3478.5628502 -0.149025E-07  0.158E-04   10.96      11.1  T
     SCC iter.                  ...        3 min,  1.881 sec
     gradient                   ...        3 min, 47.296 sec
 * total energy  : -3427.3838247 Eh     change    :  -0.8130670E-03 Eh
   gradient norm :     0.0181229 Eh/a0  converged?    E=F G=F D=F
   time step     :     0.2500000 fs     power     :   0.4164839E-07
   step length   :     0.0553920 a0     speed     :   0.5359477E-02

........................................................................
.............................. CYCLE   46 ..............................
........................................................................

 iter      E             dE          RMSdq      gap      omega  full diag
   1  -3478.5537192 -0.347855E+04  0.172E-03   10.97       0.0  T
   2  -3478.5537198 -0.537860E-06  0.100E-03   10.97       1.7  T
   3  -3478.5537198 -0.163659E-07  0.181E-04   10.97       9.7  T
   4  -3478.5537198 -0.592991E-08  0.388E-05   10.97      45.2  T
     SCC iter.                  ...        3 min, 56.837 sec
     gradient                   ...        3 min, 46.458 sec
 * total energy  : -3427.3846167 Eh     change    :  -0.7919763E-03 Eh
   gradient norm :     0.0170265 Eh/a0  converged?    E=F G=F D=F
   time step     :     0.2500000 fs     power     :   0.4022519E-07
   step length   :     0.0551665 a0     speed     :   0.5337651E-02

........................................................................
.............................. CYCLE   47 ..............................
........................................................................

 iter      E             dE          RMSdq      gap      omega  full diag
   1  -3478.5466395 -0.347855E+04  0.175E-03   10.97       0.0  T
   2  -3478.5466399 -0.399768E-06  0.102E-03   10.97       1.7  T
   3  -3478.5466399 -0.144246E-07  0.145E-04   10.97      12.1  T
   4  -3478.5466399 -0.582304E-08  0.340E-05   10.97      51.6  T
     SCC iter.                  ...        4 min,  3.887 sec
     gradient                   ...        3 min, 46.058 sec
 * total energy  : -3427.3853802 Eh     change    :  -0.7634726E-03 Eh
   gradient norm :     0.0172154 Eh/a0  converged?    E=F G=F D=F
   time step     :     0.2500000 fs     power     :   0.3894527E-07
   step length   :     0.0550405 a0     speed     :   0.5325467E-02

........................................................................
.............................. CYCLE   48 ..............................
........................................................................

 iter      E             dE          RMSdq      gap      omega  full diag
   1  -3478.5441738 -0.347854E+04  0.189E-03   10.97       0.0  T
   2  -3478.5441740 -0.188443E-06  0.111E-03   10.97       1.6  T
   3  -3478.5441740 -0.149926E-07  0.834E-05   10.97      21.0  T
   4  -3478.5441740 -0.539148E-08  0.293E-05   10.97      59.8  T
     SCC iter.                  ...        3 min, 54.332 sec
     gradient                   ...        3 min, 46.548 sec
 * total energy  : -3427.3862056 Eh     change    :  -0.8254176E-03 Eh
   gradient norm :     0.0174574 Eh/a0  converged?    E=F G=F D=F
   time step     :     0.2750000 fs     power     :   0.3856517E-07
   step length   :     0.0602996 a0     speed     :   0.5303919E-02

........................................................................
.............................. CYCLE   49 ..............................
........................................................................

 iter      E             dE          RMSdq      gap      omega  full diag
   1  -3478.5487010 -0.347855E+04  0.209E-03   10.97       0.0  T
   2  -3478.5487011 -0.699306E-07  0.122E-03   10.97       1.4  T
   3  -3478.5487011 -0.179944E-07  0.607E-05   10.97      28.9  T
   4  -3478.5487011 -0.454793E-08  0.291E-05   10.97      60.3  T
     SCC iter.                  ...        3 min, 57.560 sec
     gradient                   ...        3 min, 44.671 sec
 * total energy  : -3427.3871105 Eh     change    :  -0.9048748E-03 Eh
   gradient norm :     0.0164919 Eh/a0  converged?    E=F G=F D=F
   time step     :     0.3025000 fs     power     :   0.3846535E-07
   step length   :     0.0660945 a0     speed     :   0.5285119E-02

........................................................................
.............................. CYCLE   50 ..............................
........................................................................

 iter      E             dE          RMSdq      gap      omega  full diag
   1  -3478.5607322 -0.347856E+04  0.239E-03   10.97       0.0  T
   2  -3478.5607324 -0.235375E-06  0.139E-03   10.97       1.3  T
   3  -3478.5607324 -0.240570E-07  0.932E-05   10.97      18.8  T
   4  -3478.5607324 -0.448063E-08  0.351E-05   10.97      50.0  T
     SCC iter.                  ...        3 min, 54.524 sec
     gradient                   ...        3 min, 45.786 sec
 * total energy  : -3427.3880838 Eh     change    :  -0.9733577E-03 Eh
   gradient norm :     0.0144250 Eh/a0  converged?    E=F G=F D=F
   time step     :     0.3327500 fs     power     :   0.3712584E-07
   step length   :     0.0728771 a0     speed     :   0.5297712E-02

........................................................................
.............................. CYCLE   51 ..............................
........................................................................

 iter      E             dE          RMSdq      gap      omega  full diag
   1  -3478.5774867 -0.347858E+04  0.264E-03   10.97       0.0  T
   2  -3478.5774872 -0.504294E-06  0.154E-03   10.97       1.1  T
   3  -3478.5774873 -0.305067E-07  0.147E-04   10.97      11.9  T
   4  -3478.5774873 -0.584214E-08  0.424E-05   10.97      41.3  T
     SCC iter.                  ...        3 min, 55.600 sec
     gradient                   ...        3 min, 45.639 sec
 * total energy  : -3427.3890865 Eh     change    :  -0.1002722E-02 Eh
   gradient norm :     0.0133793 Eh/a0  converged?    E=F G=F D=F
   time step     :     0.3660250 fs     power     :   0.3416239E-07
   step length   :     0.0810021 a0     speed     :   0.5353043E-02

........................................................................
.............................. CYCLE   52 ..............................
........................................................................

 iter      E             dE          RMSdq      gap      omega  full diag
   1  -3478.5914861 -0.347859E+04  0.266E-03   10.98       0.0  T
   2  -3478.5914865 -0.358065E-06  0.155E-03   10.98       1.1  T
   3  -3478.5914865 -0.334644E-07  0.115E-04   10.98      15.2  T
   4  -3478.5914865 -0.564614E-08  0.426E-05   10.98      41.1  T
     SCC iter.                  ...        3 min, 58.158 sec
     gradient                   ...        3 min, 46.148 sec
 * total energy  : -3427.3901068 Eh     change    :  -0.1020232E-02 Eh
   gradient norm :     0.0141945 Eh/a0  converged?    E=F G=F D=F
   time step     :     0.4026275 fs     power     :   0.3169027E-07
   step length   :     0.0899060 a0     speed     :   0.5401325E-02

........................................................................
.............................. CYCLE   53 ..............................
........................................................................

 iter      E             dE          RMSdq      gap      omega  full diag
   1  -3478.5952717 -0.347860E+04  0.256E-03   10.98       0.0  T
   2  -3478.5952718 -0.113081E-06  0.150E-03   10.98       1.2  T
   3  -3478.5952718 -0.356854E-07  0.785E-05   10.98      22.3  T
   4  -3478.5952718 -0.489445E-08  0.427E-05   10.98      41.0  T
     SCC iter.                  ...        3 min, 58.265 sec
     gradient                   ...        3 min, 46.078 sec
 * total energy  : -3427.3911840 Eh     change    :  -0.1077196E-02 Eh
   gradient norm :     0.0139722 Eh/a0  converged?    E=F G=F D=F
   time step     :     0.4428903 fs     power     :   0.3075977E-07
   step length   :     0.0988610 a0     speed     :   0.5399383E-02

........................................................................
.............................. CYCLE   54 ..............................
........................................................................

 iter      E             dE          RMSdq      gap      omega  full diag
   1  -3478.5866986 -0.347859E+04  0.265E-03   10.98       0.0  T
   2  -3478.5866991 -0.522665E-06  0.156E-03   10.98       1.1  T
   3  -3478.5866991 -0.452255E-07  0.139E-04   10.98      12.6  T
   4  -3478.5866991 -0.698856E-08  0.530E-05   10.98      33.0  T
     SCC iter.                  ...        3 min, 54.205 sec
     gradient                   ...        3 min, 46.719 sec
 * total energy  : -3427.3923263 Eh     change    :  -0.1142308E-02 Eh
   gradient norm :     0.0123249 Eh/a0  converged?    E=F G=F D=F
   time step     :     0.4871793 fs     power     :   0.2928145E-07
   step length   :     0.1087965 a0     speed     :   0.5401832E-02

........................................................................
.............................. CYCLE   55 ..............................
........................................................................

 iter      E             dE          RMSdq      gap      omega  full diag
   1  -3478.5729009 -0.347857E+04  0.271E-03   10.98       0.0  T
   2  -3478.5729018 -0.922219E-06  0.160E-03   10.98       1.1  T
   3  -3478.5729019 -0.568884E-07  0.214E-04   10.98       8.2  T
   4  -3478.5729019 -0.995760E-08  0.661E-05   10.98      26.5  T
     SCC iter.                  ...        3 min, 58.408 sec
     gradient                   ...        3 min, 46.914 sec
 * total energy  : -3427.3934962 Eh     change    :  -0.1169939E-02 Eh
   gradient norm :     0.0128473 Eh/a0  converged?    E=F G=F D=F
   time step     :     0.5358972 fs     power     :   0.2696212E-07
   step length   :     0.1204362 a0     speed     :   0.5436140E-02

........................................................................
.............................. CYCLE   56 ..............................
........................................................................

 iter      E             dE          RMSdq      gap      omega  full diag
   1  -3478.5693538 -0.347857E+04  0.260E-03   10.98       0.0  T
   2  -3478.5693541 -0.322636E-06  0.153E-03   10.98       1.1  T
   3  -3478.5693542 -0.547752E-07  0.128E-04   10.98      13.7  T
   4  -3478.5693542 -0.940918E-08  0.654E-05   10.99      26.8  T
     SCC iter.                  ...        3 min, 59.546 sec
     gradient                   ...        3 min, 46.149 sec
 * total energy  : -3427.3947339 Eh     change    :  -0.1237717E-02 Eh
   gradient norm :     0.0134059 Eh/a0  converged?    E=F G=F D=F
   time step     :     0.5894869 fs     power     :   0.2649716E-07
   step length   :     0.1323185 a0     speed     :   0.5429520E-02

........................................................................
.............................. CYCLE   57 ..............................
........................................................................

 iter      E             dE          RMSdq      gap      omega  full diag
   1  -3478.5839121 -0.347858E+04  0.298E-03   10.99       0.0  T
   2  -3478.5839125 -0.422137E-06  0.173E-03   10.99       1.0  T
   3  -3478.5839126 -0.462983E-07  0.161E-04   10.99      10.9  T
   4  -3478.5839126 -0.133678E-07  0.609E-05   10.99      28.8  T
     SCC iter.                  ...        3 min, 55.128 sec
     gradient                   ...        3 min, 45.699 sec
 * total energy  : -3427.3960823 Eh     change    :  -0.1348329E-02 Eh
   gradient norm :     0.0118140 Eh/a0  converged?    E=F G=F D=F
   time step     :     0.6484356 fs     power     :   0.2601462E-07
   step length   :     0.1452511 a0     speed     :   0.5418358E-02

........................................................................
.............................. CYCLE   58 ..............................
........................................................................

 iter      E             dE          RMSdq      gap      omega  full diag
   1  -3478.6079358 -0.347861E+04  0.337E-03   10.99       0.0  T
   2  -3478.6079365 -0.688376E-06  0.195E-03   10.99       1.0  T
   3  -3478.6079365 -0.472774E-07  0.198E-04   10.99       8.8  T
   4  -3478.6079366 -0.133236E-07  0.613E-05   10.99      28.6  T
     SCC iter.                  ...        3 min, 55.320 sec
     gradient                   ...        3 min, 46.270 sec
 * total energy  : -3427.3974983 Eh     change    :  -0.1416078E-02 Eh
   gradient norm :     0.0126300 Eh/a0  converged?    E=F G=F D=F
   time step     :     0.7132792 fs     power     :   0.2461315E-07
   step length   :     0.1607730 a0     speed     :   0.5452162E-02

........................................................................
.............................. CYCLE   59 ..............................
........................................................................

 iter      E             dE          RMSdq      gap      omega  full diag
   1  -3478.6205320 -0.347862E+04  0.327E-03   11.00       0.0  T
   2  -3478.6205323 -0.271147E-06  0.194E-03   11.00       1.0  T
   3  -3478.6205324 -0.592004E-07  0.125E-04   11.00      14.0  T
   4  -3478.6205324 -0.102855E-07  0.707E-05   11.00      24.8  T
     SCC iter.                  ...        3 min, 56.912 sec
     gradient                   ...        3 min, 45.918 sec
 * total energy  : -3427.3990394 Eh     change    :  -0.1541103E-02 Eh
   gradient norm :     0.0117645 Eh/a0  converged?    E=F G=F D=F
   time step     :     0.7846071 fs     power     :   0.2477924E-07
   step length   :     0.1769545 a0     speed     :   0.5455374E-02

........................................................................
.............................. CYCLE   60 ..............................
........................................................................

 iter      E             dE          RMSdq      gap      omega  full diag
   1  -3478.6213761 -0.347862E+04  0.357E-03   11.00       0.0  T
   2  -3478.6213776 -0.143417E-05  0.216E-03   11.00       1.0  T
   3  -3478.6213776 -0.729447E-07  0.239E-04   11.00       7.3  T
   4  -3478.6213777 -0.177311E-07  0.818E-05   11.00      21.4  T
     SCC iter.                  ...        3 min, 57.502 sec
     gradient                   ...        3 min, 47.257 sec
 * total energy  : -3427.4006773 Eh     change    :  -0.1637845E-02 Eh
   gradient norm :     0.0111637 Eh/a0  converged?    E=F G=F D=F
   time step     :     0.8630678 fs     power     :   0.2317646E-07
   step length   :     0.1961584 a0     speed     :   0.5497649E-02

........................................................................
.............................. CYCLE   61 ..............................
........................................................................

 iter      E             dE          RMSdq      gap      omega  full diag
   1  -3478.6429310 -0.347864E+04  0.423E-03   11.01       0.0  T
   2  -3478.6429313 -0.291678E-06  0.251E-03   11.01       1.0  T
   3  -3478.6429313 -0.666696E-07  0.127E-04   11.01      13.8  T
   4  -3478.6429313 -0.989985E-08  0.666E-05   11.01      26.3  T
     SCC iter.                  ...        3 min, 58.510 sec
     gradient                   ...        3 min, 46.758 sec
 * total energy  : -3427.4023937 Eh     change    :  -0.1716416E-02 Eh
   gradient norm :     0.0103340 Eh/a0  converged?    E=F G=F D=F
   time step     :     0.9493746 fs     power     :   0.2241425E-07
   step length   :     0.2173439 a0     speed     :   0.5537643E-02

........................................................................
.............................. CYCLE   62 ..............................
........................................................................

 iter      E             dE          RMSdq      gap      omega  full diag
   1  -3478.6889957 -0.347869E+04  0.571E-03   11.01       0.0  T
   2  -3478.6889971 -0.136973E-05  0.330E-03   11.01       1.0  T
   3  -3478.6889972 -0.921423E-07  0.258E-04   11.01       6.8  T
   4  -3478.6889972 -0.164750E-07  0.769E-05   11.01      22.8  T
     SCC iter.                  ...        3 min, 56.165 sec
     gradient                   ...        3 min, 45.818 sec
 * total energy  : -3427.4041311 Eh     change    :  -0.1737426E-02 Eh
   gradient norm :     0.0102995 Eh/a0  converged?    E=F G=F D=F
   time step     :     1.0443120 fs     power     :   0.1956510E-07
   step length   :     0.2416803 a0     speed     :   0.5597912E-02

........................................................................
.............................. CYCLE   63 ..............................
........................................................................

 iter      E             dE          RMSdq      gap      omega  full diag
   1  -3478.6998583 -0.347870E+04  0.524E-03   11.02       0.0  T
   2  -3478.6998594 -0.114593E-05  0.311E-03   11.02       1.0  T
   3  -3478.6998595 -0.725618E-07  0.193E-04   11.02       9.1  T
   4  -3478.6998595 -0.315631E-07  0.737E-05   11.02      23.8  T
     SCC iter.                  ...        3 min, 55.258 sec
     gradient                   ...        3 min, 46.861 sec
 * total energy  : -3427.4058568 Eh     change    :  -0.1725645E-02 Eh
   gradient norm :     0.0083647 Eh/a0  converged?    E=F G=F D=F
   time step     :     1.1487432 fs     power     :   0.1774727E-07
   step length   :     0.2664829 a0     speed     :   0.5611274E-02

........................................................................
.............................. CYCLE   64 ..............................
........................................................................

 iter      E             dE          RMSdq      gap      omega  full diag
   1  -3478.7022957 -0.347870E+04  0.537E-03   11.03       0.0  T
   2  -3478.7022970 -0.125795E-05  0.320E-03   11.03       1.0  T
   3  -3478.7022971 -0.772538E-07  0.190E-04   11.03       9.2  T
   4  -3478.7022971 -0.264113E-07  0.761E-05   11.03      23.0  T
     SCC iter.                  ...        3 min, 57.809 sec
     gradient                   ...        3 min, 46.912 sec
 * total energy  : -3427.4074908 Eh     change    :  -0.1633980E-02 Eh
   gradient norm :     0.0098877 Eh/a0  converged?    E=F G=F D=F
   time step     :     1.2500000 fs     power     :   0.1517329E-07
   step length   :     0.2919756 a0     speed     :   0.5650042E-02

........................................................................
.............................. CYCLE   65 ..............................
........................................................................

 iter      E             dE          RMSdq      gap      omega  full diag
   1  -3478.7434657 -0.347874E+04  0.610E-03   11.04       0.0  T
   2  -3478.7434676 -0.194047E-05  0.353E-03   11.04       1.0  T
   3  -3478.7434677 -0.723066E-07  0.310E-04   11.04       5.7  T
   4  -3478.7434677 -0.327586E-07  0.763E-05   11.04      23.0  T
     SCC iter.                  ...        3 min, 52.435 sec
     gradient                   ...        3 min, 47.022 sec
 * total energy  : -3427.4089522 Eh     change    :  -0.1461485E-02 Eh
   gradient norm :     0.0102137 Eh/a0  converged?    E=F G=F D=F
   time step     :     1.2500000 fs     power     :   0.1302956E-07
   step length   :     0.2887259 a0     speed     :   0.5587156E-02

........................................................................
.............................. CYCLE   66 ..............................
........................................................................

 iter      E             dE          RMSdq      gap      omega  full diag
   1  -3478.7405198 -0.347874E+04  0.456E-03   11.05       0.0  T
   2  -3478.7405213 -0.154450E-05  0.272E-03   11.05       1.0  T
   3  -3478.7405214 -0.774803E-07  0.231E-04   11.05       7.6  T
   4  -3478.7405214 -0.219397E-07  0.831E-05   11.05      21.1  T
     SCC iter.                  ...        3 min, 55.088 sec
     gradient                   ...        3 min, 46.307 sec
 * total energy  : -3427.4103069 Eh     change    :  -0.1354680E-02 Eh
[...]
  3011   6 C     3012   6 C                                       1.5280184
  3012   6 C     3013   6 C                                       1.5268612
  3013   6 C     3014   6 C                                       1.5271626
  3014   6 C     3015   6 C                                       1.5265456
  3015   6 C     3016   6 C                                       1.5234659
  3015   6 C     3017   1 H                                       1.0928248
  3015   6 C     3018   1 H                                       1.0929786
  3014   6 C     3019   1 H                                       1.0934413
  3014   6 C     3020   1 H                                       1.0933869
  3013   6 C     3021   1 H                                       1.0931288
  3013   6 C     3022   1 H                                       1.0933924
  3012   6 C     3023   1 H                                       1.0936273
  3012   6 C     3024   1 H                                       1.0934815
  3011   6 C     3025   1 H                                       1.0918741
  3011   6 C     3026   1 H                                       1.0931638
  3010   6 C     3027   1 H                                       1.0935867
  3010   6 C     3028   1 H                                       1.0922877
  3009   6 C     3029   1 H                                       1.0925294
  3009   6 C     3030   1 H                                       1.0930069
  3008   6 C     3031   1 H                                       1.0925568
  3008   6 C     3032   1 H                                       1.0912981
  3007   6 C     3033   1 H                                       1.0919745
  3007   6 C     3034   1 H                                       1.0937930
  3006   6 C     3035   1 H                                       1.0925163
  3006   6 C     3036   1 H                                       1.0931828
  3005   6 C     3037   1 H                                       1.0934423
  3005   6 C     3038   1 H                                       1.0931188
  3004   6 C     3039   1 H                                       1.0909397
  3004   6 C     3040   1 H                                       1.0918212
  3003   6 C     3041   1 H                                       1.0935090
  3003   6 C     3042   1 H                                       1.0929918
  3002   6 C     3043   1 H                                       1.0931832
  3002   6 C     3044   1 H                                       1.0935505
  3001   6 C     3045   1 H                                       1.0912462
  3001   6 C     3046   1 H                                       1.0908115
  3000   6 C     3047   1 H                                       1.0934452
  3000   6 C     3048   1 H                                       1.0927358
  2999   6 C     3049   1 H                                       1.0931958
  2999   6 C     3050   1 H                                       1.0931935
  2998   6 C     3051   1 H                                       1.0927135
  2998   6 C     3052   1 H                                       1.0905808
  2997   6 C     3053   1 H                                       1.0930373
  2997   6 C     3054   1 H                                       1.0928809
  2996   6 C     3055   1 H                                       1.0927393
  2996   6 C     3056   1 H                                       1.0925930
  2995   6 C     3057   1 H                                       1.0935024
  2995   6 C     3058   1 H                                       1.0919092
  2994   6 C     3059   1 H                                       1.0925288
  2994   6 C     3060   1 H                                       1.0929821
  2993   6 C     3061   1 H                                       1.0928004
  2993   6 C     3062   1 H                                       1.0931091
  2992   6 C     3063   1 H                                       1.0920304
  2992   6 C     3064   1 H                                       1.0934161
  2991   6 C     3065   1 H                                       1.0917697
  2991   6 C     3066   1 H                                       1.0918347
  2990   6 C     3067   1 H                                       1.0936987
  2990   6 C     3068   1 H                                       1.0928553
  2989   6 C     3069   1 H                                       1.0931862
  2989   6 C     3070   1 H                                       1.0935513
  2988   6 C     3071   1 H                                       1.0928676
  2988   6 C     3072   1 H                                       1.0906773
  2987   6 C     3073   1 H                                       1.0911102
  2987   6 C     3074   1 H                                       1.0931830
  2986   6 C     3075   1 H                                       1.0929806
  2986   6 C     3076   1 H                                       1.0921654
  2985   6 C     3077   1 H                                       1.0934078
  2985   6 C     3078   1 H                                       1.0926131
  2984   6 C     3079   1 H                                       1.0918776
  2984   6 C     3080   1 H                                       1.0912715
  2983   6 C     3081   1 H                                       1.0938567
  2983   6 C     3082   1 H                                       1.0930633
  2982   6 C     3083   1 H                                       1.0913579
  2982   6 C     3084   1 H                                       1.0934918
  2981   6 C     3085   1 H                                       1.0942068
  2981   6 C     3086   1 H                                       1.0929058
  2980   6 C     3087   1 H                                       1.0925453
  2980   6 C     3088   1 H                                       1.0930892
  2979   6 C     3089   1 H                                       1.0910433
  2979   6 C     3090   1 H                                       1.0913761
  2978   6 C     3091   1 H                                       1.0939467
  2978   6 C     3092   1 H                                       1.0935148
  2977   6 C     3093   1 H                                       1.0931262
  2977   6 C     3094   1 H                                       1.0941248
  2976   6 C     3095   1 H                                       1.0920000
  2976   6 C     3096   1 H                                       1.0909413
  2975   6 C     3097   1 H                                       1.0923279
  2975   6 C     3098   1 H                                       1.0934679
  2974   6 C     3099   1 H                                       1.0917553
  2974   6 C     3100   1 H                                       1.0926569
  2973   6 C     3101   1 H                                       1.0942101
  2973   6 C     3102   1 H                                       1.0935063
  2972   6 C     3103   1 H                                       1.0919093
  2972   6 C     3104   1 H                                       1.0922218
  2971   6 C     3105   1 H                                       1.0915145
  2971   6 C     3106   1 H                                       1.0916207
  2970   6 C     3107   1 H                                       1.0941129
  2970   6 C     3108   1 H                                       1.0940862
  2969   6 C     3109   1 H                                       1.0947389
  2969   6 C     3110   1 H                                       1.0896980
  2968   6 C     3111   1 H                                       1.0896413
  2968   6 C     3112   1 H                                       1.0928771
  2967   6 C     3113   1 H                                       1.0942053
  2967   6 C     3114   1 H                                       1.0940272
  2966   6 C     3115   1 H                                       1.0932545
  2966   6 C     3116   1 H                                       1.0900661
  2965   6 C     3117   1 H                                       1.0921116
  2965   6 C     3118   1 H                                       1.0941269
  2964   6 C     3119   1 H                                       1.0942575
  2964   6 C     3120   1 H                                       1.0933939
  2963   6 C     3121   1 H                                       1.0915524
  2963   6 C     3122   1 H                                       1.0936998
  2962   6 C     3123   1 H                                       1.0934800
  2962   6 C     3124   1 H                                       1.0931203
  2961   6 C     3125   1 H                                       1.0935538
  2961   6 C     3126   1 H                                       1.0919696
  2960   6 C     3127   1 H                                       1.0927070
  2960   6 C     3128   1 H                                       1.0936477
  2959   6 C     3129   1 H                                       1.0934515
  2959   6 C     3130   1 H                                       1.0916088
  2958   6 C     3131   1 H                                       1.0905753
  2958   6 C     3132   1 H                                       1.0934804
  2957   6 C     3133   1 H                                       1.0923359
  2957   6 C     3134   1 H                                       1.0941905
  2956   6 C     3135   1 H                                       1.0942459
  2956   6 C     3136   1 H                                       1.0907807
  2955   6 C     3137   1 H                                       1.0921653
  2955   6 C     3138   1 H                                       1.0920072
  2954   6 C     3139   1 H                                       1.0931990
  2954   6 C     3140   1 H                                       1.0925501
  2953   6 C     3141   1 H                                       1.0932326
  2953   6 C     3142   1 H                                       1.0925413
  2952   6 C     3143   1 H                                       1.0919327
  2952   6 C     3144   1 H                                       1.0927910
  2951   6 C     3145   1 H                                       1.0911560
  2951   6 C     3146   1 H                                       1.0924817
  2950   6 C     3147   1 H                                       1.0923769
  2950   6 C     3148   1 H                                       1.0929411
  2949   6 C     3149   1 H                                       1.0930449
  2949   6 C     3150   1 H                                       1.0939213
  2948   6 C     3151   1 H                                       1.0932212
  2948   6 C     3152   1 H                                       1.0918033
  2947   6 C     3153   1 H                                       1.0925581
  2947   6 C     3154   1 H                                       1.0932862
  2946   6 C     3155   1 H                                       1.0919673
  2946   6 C     3156   1 H                                       1.0911354
  2945   6 C     3157   1 H                                       1.0936175
  2945   6 C     3158   1 H                                       1.0938033
  2944   6 C     3159   1 H                                       1.0937874
  2944   6 C     3160   1 H                                       1.0914274
  2943   6 C     3161   1 H                                       1.0918559
  2943   6 C     3162   1 H                                       1.0930417
  2942   6 C     3163   1 H                                       1.0932740
  2942   6 C     3164   1 H                                       1.0930389
  2941   6 C     3165   1 H                                       1.0913380
  2941   6 C     3166   1 H                                       1.0929325
  2940   6 C     3167   1 H                                       1.0933513
  2940   6 C     3168   1 H                                       1.0930016
  2939   6 C     3169   1 H                                       1.0930307
  2939   6 C     3170   1 H                                       1.0934046
  2938   6 C     3171   1 H                                       1.0929987
  2938   6 C     3172   1 H                                       1.0895228
  2937   6 C     3173   1 H                                       1.0917990
  2937   6 C     3174   1 H                                       1.0936576
  2936   6 C     3175   1 H                                       1.0934470
  2936   6 C     3176   1 H                                       1.0934621
  2935   6 C     3177   1 H                                       1.0938913
  2935   6 C     3178   1 H                                       1.0902641
  2934   6 C     3179   1 H                                       1.0898846
  2934   6 C     3180   1 H                                       1.0928981
  2933   6 C     3181   1 H                                       1.0930461
  2933   6 C     3182   1 H                                       1.0923364
  2932   6 C     3183   1 H                                       1.0928186
  2932   6 C     3184   1 H                                       1.0922282
  2931   6 C     3185   1 H                                       1.0924521
  2931   6 C     3186   1 H                                       1.0930126
  2930   6 C     3187   1 H                                       1.0915789
  2930   6 C     3188   1 H                                       1.0938124
  2929   6 C     3189   1 H                                       1.0936084
  2929   6 C     3190   1 H                                       1.0927245
  2928   6 C     3191   1 H                                       1.0930895
  2928   6 C     3192   1 H                                       1.0927830
  2927   6 C     3193   1 H                                       1.0938324
  2927   6 C     3194   1 H                                       1.0925462
  2926   6 C     3195   1 H                                       1.0921044
  2926   6 C     3196   1 H                                       1.0913340
  2925   6 C     3197   1 H                                       1.0937001
  2925   6 C     3198   1 H                                       1.0927780
  2924   6 C     3199   1 H                                       1.0925260
  2924   6 C     3200   1 H                                       1.0935755
  2923   6 C     3201   1 H                                       1.0931133
  2923   6 C     3202   1 H                                       1.0927465
  2922   6 C     3203   1 H                                       1.0929457
  2922   6 C     3204   1 H                                       1.0929822
  2921   6 C     3205   1 H                                       1.0928566
  2921   6 C     3206   1 H                                       1.0926740
  2920   6 C     3207   1 H                                       1.0925183
  2920   6 C     3208   1 H                                       1.0925986
  2919   6 C     3209   1 H                                       1.0926841
  2919   6 C     3210   1 H                                       1.0926230
  2918   6 C     3211   1 H                                       1.0922615
  2918   6 C     3212   1 H                                       1.0929729
  2917   6 C     3213   1 H                                       1.0928083
  2917   6 C     3214   1 H                                       1.0906571
  2916   6 C     3215   1 H                                       1.0925186
  2916   6 C     3216   1 H                                       1.0934805
  2915   6 C     3217   1 H                                       1.0930999
  2915   6 C     3218   1 H                                       1.0930327
  2914   6 C     3219   1 H                                       1.0912673
  2914   6 C     3220   1 H                                       1.0915302
  2913   6 C     3221   1 H                                       1.0923156
  2913   6 C     3222   1 H                                       1.0933817
  2912   6 C     3223   1 H                                       1.0935477
  2912   6 C     3224   1 H                                       1.0933085
  2911   6 C     3225   1 H                                       1.0908631
  2911   6 C     3226   1 H                                       1.0923202
  2910   6 C     3227   1 H                                       1.0934873
  2910   6 C     3228   1 H                                       1.0931910
  2909   6 C     3229   1 H                                       1.0916538
  2909   6 C     3230   1 H                                       1.0922268
  2908   6 C     3231   1 H                                       1.0933083
  2908   6 C     3232   1 H                                       1.0932650
  2907   6 C     3233   1 H                                       1.0912435
  2907   6 C     3234   1 H                                       1.0924009
  2906   6 C     3235   1 H                                       1.0931966
  2906   6 C     3236   1 H                                       1.0934054
  2905   6 C     3237   1 H                                       1.0912208
  2905   6 C     3238   1 H                                       1.0927104
  2904   6 C     3239   1 H                                       1.0933266
  2904   6 C     3240   1 H                                       1.0931946
  2903   6 C     3241   1 H                                       1.0906567
  2903   6 C     3242   1 H                                       1.0929734
  2902   6 C     3243   1 H                                       1.0934585
  2902   6 C     3244   1 H                                       1.0927680
  2901   6 C     3245   1 H                                       1.0930871
  2901   6 C     3246   1 H                                       1.0933996
  2900   6 C     3247   1 H                                       1.0912345
  2900   6 C     3248   1 H                                       1.0901122
  2899   6 C     3249   1 H                                       1.0931538
  2899   6 C     3250   1 H                                       1.0931058
  2898   6 C     3251   1 H                                       1.0926369
  2898   6 C     3252   1 H                                       1.0933545
  2897   6 C     3253   1 H                                       1.0880185
  2897   6 C     3254   1 H                                       1.0879975
  2897   6 C     3255   1 H                                       1.0863422
  3016   6 C     3256   1 H                                       1.0881430
  3016   6 C     3257   1 H                                       1.0883933
  3016   6 C     3258   1 H                                       1.0881584

 * 2 distinct bonds (by element types)

   Z      Z             #   av. dist./Å        max./Å        min./Å
   1 H    6 C        2178     1.0925511     1.0948295     1.0860213
   6 C    6 C        1071     1.5273603     1.5351846     1.5223226


optimized geometry written to: xtbopt.xyz


           -------------------------------------------------
          | TOTAL ENERGY            -3427.468963246272 Eh   |
          | GRADIENT NORM               0.000713125490 Eh/α |
          | HOMO-LUMO GAP              11.288070139462 eV   |
           -------------------------------------------------

------------------------------------------------------------------------
 * finished run on 2024/06/21 at 05:45:31.892     
------------------------------------------------------------------------
 total:
 * wall-time:     3 d, 14 h, 27 min, 55.094 sec
 *  cpu-time:    18 d, 22 h,  5 min, 40.044 sec
 * ratio c/w:     5.252 speedup
 SCF:
 * wall-time:     0 d,  0 h,  7 min, 11.654 sec
 *  cpu-time:     0 d,  0 h, 37 min, 35.528 sec
 * ratio c/w:     5.225 speedup
 ANC optimizer:
 * wall-time:     3 d, 14 h, 20 min,  0.823 sec
 *  cpu-time:    18 d, 21 h, 27 min,  6.072 sec
 * ratio c/w:     5.252 speedup

