3795
 energy: -5103.677948747468 gnorm: 0.000896222679 xtb: 6.6.1 (8d0f1dd)
C          128.04031133714923      107.34165067910573      104.32301588636928
C          127.40017846457398      108.69284951257676      104.54687392093675
C          127.15555551155303      106.42863209662347      103.46407056789519
C          125.81763189789055      106.11323741276971      104.12849166234636
H          126.98049660886568      106.90959042044858      102.49838052011449
H          127.69812730508929      105.49922150132774      103.28318995108594
C          124.97933089956240      105.16507153568668      103.26425010755115
H          125.98604685823359      105.66365373876846      105.10704724911196
H          125.27125523239388      107.04432049154452      104.29147917676826
C          123.50252169025738      105.26367614227685      103.58916214206504
H          125.10156037315546      105.41563582704150      102.20834195619766
H          125.31175637209931      104.13658432606262      103.41218720602551
N          123.16732468445819      104.99858420971904      104.85029002794380
O          127.93545770219818      109.64580606741022      103.81517042795497
O          126.49132728398301      108.88755094486237      105.32784294560128
H          127.52481009310461      110.54824362645323      104.03629724119961
H          128.19451631291034      106.87797967957792      105.29764348893660
H          128.99906812255310      107.49515938648756      103.82915990259362
C          121.81018758873418      105.08489833014222      105.34128635419859
H          123.88141311710186      104.73660177533692      105.51993810481859
C          121.28856193566024      103.75271037189367      105.87910353057529
H          121.77035958563235      105.82745551846871      106.14411982961397
H          121.18487504557405      105.43331858456280      104.51797531063512
C          121.40607737506481      102.58899587660142      104.89566540476692
H          121.83603266413262      103.50051885191097      106.78914711934523
H          120.24252308640861      103.88898404558012      106.15813436958732
C          120.70663826790296      102.84350019089949      103.56108451523205
H          122.46132373315879      102.37506601294133      104.71061708185687
H          120.96623902816958      101.70667486861640      105.36590161742262
C          120.67036387079355      101.57792089671308      102.70451520668777
H          119.69138068027237      103.19450875085326      103.75488106552537
H          121.24107079959575      103.62376530363237      103.01743160400166
C          120.29313328379314      101.85519105531606      101.25005754685493
H          121.66250722749177      101.12324766662414      102.70506091762695
H          119.97346239897585      100.85563390138017      103.13391120165006
N          118.91339198038150      102.26290816419682      101.09042217895659
H          120.95158048236351      102.63457432310105      100.85047877209956
H          120.41431639981222      100.95201295858352      100.64753696275700
C          118.06537520753785      101.66211980769906      100.23502711771859
H          118.61102265279732      103.07197544351862      101.61028109509374
O          122.68042054541601      105.58451403717486      102.72784263720868
C          116.69761779518021      102.31531469564668      100.14200735093770
C          115.60208010811955      101.31522134839587       99.77395055224996
H          116.45173597603629      102.84016758224509      101.06397402611412
H          116.76503566626923      103.06294441824625       99.34638276047518
C          115.39657544816157      100.22074001751778      100.82135972219525
H          114.66701649250035      101.85787246065352       99.62392554874928
H          115.88018974197594      100.83645267113549       98.83342479480203
C          114.83782854509013      100.74996452582683      102.14631491836869
H          114.70478955328188       99.47903555505644      100.41647378004852
H          116.34784854168947       99.71704646256048      101.00374351597246
C          114.60079147041201       99.59276260929101      103.09647392546307
H          115.55111718005816      101.43061936956438      102.60712445908176
H          113.90568424072769      101.28687222261114      101.96833552620797
N          113.39050288312357       99.03029233649792      102.98641796732780
C          112.92049497520688       97.98415408804790      103.86898091486758
H          112.69315939918353       99.47827659358107      102.41160875415889
O          118.38714488251856      100.69358844094563       99.55887002181353
C          112.02402969300140       98.55278381664338      104.96946717234351
H          112.38215648597378       97.23978182660822      103.27815711677133
H          113.80715191935884       97.52383997568866      104.30789751300790
C          110.63874409079408       98.94589590385908      104.46030172292723
H          111.91339382028862       97.81329072590030      105.76337490053338
H          112.52486158724497       99.42382791038274      105.39324941429899
C          109.84268477891904       99.67574794945186      105.54275746485122
H          110.71554015120904       99.59235603115830      103.58424552056503
H          110.10344549141566       98.04116947880433      104.16539929238431
C          110.29016845551565      101.12944550204752      105.69930967727512
H          108.78382001486760       99.64650961421356      105.27747308109434
H          109.97079614112214       99.15242951866139      106.49281514420156
C          109.80475544235100      101.75655964109004      106.99885523480870
N          108.36097916231260      101.82629760131917      107.06579285585164
H          110.19145698721147      101.17125149738719      107.84265920880895
H          110.17275409145559      102.78133663815446      107.09013158612370
C          107.68269791704917      102.84668444552342      107.61884929438426
H          107.85533750067003      101.02121001167761      106.73271146297392
O          115.46761862376903       99.17157721733237      103.85758560306535
C          106.18008577783080      102.63863308848502      107.62622201787576
C          105.79444036245704      101.65362377150251      108.73509833376085
H          105.69643309564321      103.59849672903445      107.79751707663029
H          105.85255733011350      102.25305741373724      106.65971898276200
C          104.28479830746527      101.44911023793000      108.83362042850663
H          106.26783440429580      100.68712083990707      108.54500028260588
H          106.16955327936589      102.02834249298910      109.68943511082371
C          103.54137749009216      102.71000091592752      109.27480983620909
H          103.89481569091551      101.12133579856260      107.86749279138469
H          104.08082798502558      100.65947211197532      109.55799092843185
C          102.15061152486467      102.38908511597165      109.77339535055226
H          104.06016059499262      103.16585610374678      110.12450045299209
H          103.50116204158833      103.44031147146066      108.46786493803469
N          101.18876805185194      103.24132619106696      109.40413157305063
C           99.81587721153493      103.12744948517023      109.86234407562297
H          101.42399688633091      104.05738545317678      108.86184558941670
H          111.37761833234954      101.19729677260230      105.69973392671540
H          109.92504820705277      101.71283817849455      104.85444903689707
O          108.22837369715914      103.83381205225194      108.09010983245487
O          101.91633227018244      101.41293525150937      110.48498668410367
C           98.89490998954682      104.04628690821571      109.06803416030205
H           99.51412380069875      102.08220646802496      109.74408601303286
H           99.76673439509577      103.36315032193238      110.93023318749758
C           99.07900454177999      105.52880050050344      109.40065681022045
H           99.07934927947355      103.88802146727946      108.00377038613452
H           97.86338679345809      103.75941464982085      109.27487210818963
C           98.51259601033031      105.91583642158031      110.76644153052101
H          100.13853742081969      105.78700226698950      109.36678539477688
H           98.58197915809160      106.12362189795459      108.63248465467765
C           98.58306079044367      107.42482508061921      110.99138951715601
H           97.47253738437058      105.59100308941115      110.83694125550588
H           99.06728843946594      105.40973797495349      111.55738829334811
C           98.10423326725400      107.83822326036811      112.38626503968055
H           99.61270442383835      107.76520178691501      110.87155734297296
H           97.97074418139400      107.93514749768279      110.24557644039608
N           98.99181821664541      107.36035562759288      113.42479573630386
H           98.07913577844828      108.92979347766206      112.45212078711020
H           97.10613229638317      107.44019878398356      112.57792920833776
C           99.97930210189679      108.10919376036139      113.93067442214929
H           98.80598009835698      106.43025551128611      113.78188761097557
C          100.83083424505863      107.44069378610452      114.99927356035916
C          102.31894365650533      107.47148520161521      114.63415675824534
H          100.68687811350307      108.01542752535134      115.91727037583036
H          100.49531723612576      106.41890198571252      115.17175000576052
C          102.71232566598599      106.38618848896857      113.63316713104516
H          102.54097085195811      108.45671728155318      114.21847825615441
H          102.91051050542036      107.34582619751602      115.54205138924796
C          104.13771060348299      106.59343170159615      113.12132275398206
H          102.64051401158635      105.40601544608568      114.10926583790420
H          102.01534534069233      106.38404073078766      112.79196180502629
C          104.68824437304015      105.39614961477083      112.35799956389394
H          104.17205974995260      107.45306812934915      112.44836920765086
H          104.80679051190967      106.80647093460317      113.95437893674978
N          106.00895677173745      105.45086519446392      112.15524613429201
C          106.74203484960590      104.44641750147549      111.40897309085358
H          106.52849212977857      106.27522776312857      112.46288785817468
O          100.18483939635701      109.26585665264834      113.57679170638546
C          108.24981013667707      104.61962634982679      111.55895469770981
H          106.42476402869995      103.45917300741378      111.76640204873870
H          106.48256387666639      104.51382802691796      110.34449921649497
C          108.74377997931289      104.39974448839519      112.98631423781534
H          108.73493170551291      103.92441566048090      110.87122173194598
H          108.51804051933365      105.62717140451211      111.24114957225896
C          110.24130343254498      104.66133114499183      113.13388163257466
H          108.21463406601055      105.08988277192176      113.64250867689672
H          108.50931295057536      103.38029863631898      113.29967013815848
C          110.69589137688084      104.64832343115332      114.59553728555467
H          110.80447807527979      103.91714603049316      112.56670421201251
H          110.46543285077263      105.63974693069974      112.70433868704581
C          110.78613503068784      103.23999289066805      115.18093955183676
H          111.67951873319288      105.11303109482665      114.66895551863654
H          109.99768681852876      105.23834324238612      115.19058749903949
N          111.32597873243409      103.26375547347767      116.52566688288852
H          109.80144463809323      102.76757071035460      115.21318536795771
H          111.45564201329459      102.61652838140148      114.58637098357555
O          103.98584794903901      104.46614293013064      111.96766180716263
C          112.35982932113912      102.51637694121622      116.92450953120982
H          110.82432302263946      103.81820126518174      117.20260021772870
C          112.75760827384075      102.66862484969541      118.37857004267798
C          113.93242119426937      103.64341514120827      118.50766063610538
H          111.92105916895439      103.02689980350544      118.97662062404537
H          113.06882153461213      101.68949108058159      118.74334814728547
C          114.42785032227124      103.76677342583383      119.94836227801331
H          114.75797306043960      103.29310962387997      117.88453562867231
H          113.62190553788562      104.62628811112835      118.14719576754368
C          114.99805860007496      102.44029552176403      120.46849751071200
H          115.21233751520231      104.52576303376588      119.97410375779695
H          113.61531251251422      104.08807000707488      120.60160981378918
C          116.03803318053492      102.68145781490405      121.54013613295091
H          114.20343262120490      101.82429753922725      120.88846124620797
H          115.47393135879526      101.91512059545455      119.64181868753350
N          117.24286267373775      102.99657612010041      121.06303047702902
O          112.98030654677994      101.77812945479775      116.16307230659656
C          118.40334856054488      103.23968314782985      121.89597914615258
H          117.38143084006961      102.97565244348915      120.05671519800433
C          119.59650196302226      103.62634940543583      121.03259874401891
H          118.16806807134412      104.04001873143625      122.60668925825445
H          118.63069722134097      102.33384972293015      122.47302129887035
C          120.09568444943378      102.44438664198347      120.19964800226556
H          119.28902245626456      104.43719800923621      120.36911314236140
H          120.39135005590900      104.01751060506025      121.66737960355938
C          120.88651433875982      102.89744016474809      118.97428736664170
H          120.70524725555650      101.78053480731873      120.81568161896345
H          119.23763774553906      101.86405259334578      119.86508901213563
C          121.05061845730647      101.80067727543504      117.92144003442733
H          120.36661667027550      103.73884049602329      118.51198381649994
H          121.87154423578372      103.25180562590755      119.28448689176579
C          119.72400736552963      101.40059678306301      117.26869584340619
H          121.73382084171743      102.14895880685970      117.14395401775057
H          121.47379832803458      100.90420062928580      118.37191691337428
N          119.04614581119679      102.52524580781493      116.66868054058519
H          119.91059205823181      100.64515888506361      116.49899940770308
H          119.05936837341767      100.96192140370346      118.01335717406370
C          117.94451530340449      103.09254850944505      117.16300944754765
H          119.43787210903403      102.89885185486992      115.80999902981510
O          115.78668406173691      102.61107825344860      122.74289742779854
C          117.45590187165536      104.28398948943753      116.36753558179821
C          118.07579964745062      105.58869096667600      116.88103020854753
H          117.75345458669285      104.14122649318715      115.32928327922662
H          116.36880483468097      104.33897300694713      116.43280740255793
C          117.42722403793465      106.12570158847787      118.15166586567769
H          119.14565355637284      105.43418550817333      117.04027206360095
H          117.96523085703701      106.34490900317620      116.10719040209649
C          118.06876532890932      107.44435675834076      118.58234041720677
H          116.36489598140327      106.29339100652041      117.96274359289914
H          117.51515085014628      105.39314750963715      118.95623980982673
C          117.88817626517410      108.55969587185534      117.56624570434413
H          117.58814051997858      107.79279389352287      119.50027834888400
H          119.13014194096286      107.31602308032808      118.79591560189427
N          118.81733231183263      109.51422570279878      117.63256249879848
C          118.74751096015939      110.77443341759719      116.92417775635953
H          119.61951824045907      109.38166676994599      118.24014063992171
O          117.37743446081254      102.70490596736414      118.18495505425417
C          120.02934482838222      111.09482152123377      116.15871495660271
H          117.89827867109064      110.71302138261638      116.24403915980920
H          118.56416634618843      111.57266748037718      117.65338353971454
C          120.01145472452367      112.52304218596400      115.60727433339474
H          120.87411567936371      110.98368286967303      116.84037379860867
H          120.16153139249273      110.37937065095457      115.34546552962824
C          118.89023202966602      112.73400458065238      114.58792287146929
H          119.89622085770307      113.21209696954618      116.44525926431960
H          120.97480131032432      112.72371176570354      115.13367733915533
C          118.98329006777689      114.04958146754389      113.81155412727853
H          118.92168089188286      111.90915617860423      113.87179491074487
H          117.93103154543303      112.69911868834444      115.09981013159722
C          118.64941272087276      115.28097438307394      114.65135939027240
H          119.99458762511482      114.16243138862040      113.41720036490105
H          118.28812052755995      114.00875577047556      112.97154991045193
N          117.22755738008425      115.44018596880565      114.87686728149988
H          119.16329977400821      115.21391734515515      115.61572110499509
H          118.98482872901243      116.18835001230390      114.14240331081542
C          116.63015517395671      116.64073217368953      114.90242074708634
H          116.68393015006941      114.62137844315987      115.12319900890279
O          116.93423605182083      108.59572001293262      116.78648616820117
C          115.16240773130177      116.59670203877691      115.28230076370241
C          114.24078289307420      116.47371278087341      114.06334582557430
H          114.98763440307272      115.74567260066780      115.93931368746945
H          114.91718943018550      117.51390277365911      115.81956381348348
C          114.13711774728573      117.77840118609085      113.27595371371790
H          114.59654518167999      115.67329699791499      113.41163567281724
H          113.25037633591201      116.18441963341232      114.42138906311442
C          113.31817436646853      117.59988426925707      111.99236629189863
H          113.67642000815235      118.54474214110185      113.90292320685326
H          115.13878225145945      118.12222141509336      113.01323432335515
C          111.94023970341124      117.04165019516645      112.28275542457320
H          113.20517474490119      118.56438616389875      111.49594694469810
H          113.83860672352394      116.90856113457852      111.33367031212592
N          111.78376380830279      115.75531983376285      111.97047921953877
O          117.22356907665306      117.68271515930799      114.63809333682332
C          110.54300298441245      115.04187538134703      112.18097294314668
H          112.57120829240205      115.23448937174111      111.60614752368441
C          110.34840838836449      113.93767953156051      111.14906096886276
H          110.52923395839514      114.60928637580690      113.18879567398317
H          109.73286622207391      115.77445317941041      112.12135752217425
C          111.29002997389644      112.75178236116838      111.36120411660346
H          109.31691458439698      113.58440414739236      111.20212214897410
H          110.50623064649149      114.35084406249950      110.15084478505946
C          111.03212457421455      111.67757751136175      110.30779396777311
H          112.32616293913814      113.08601790791205      111.29871281108579
H          111.12630964683149      112.33064884406292      112.35384913038123
C          111.83225148833009      110.39607957807858      110.52383499921719
H          109.96807718263551      111.43299282841889      110.32311587162749
H          111.26777462685668      112.08300903110035      109.32069909807340
C          111.59596611921442      109.42045101348630      109.36947608483895
H          112.89859234658242      110.61507071921051      110.59080327465664
H          111.52365493947192      109.91368143463080      111.45080670892013
N          112.33791840834081      108.18224679715298      109.51521259290355
H          110.52511751401030      109.19246726124764      109.31112702383538
H          111.90444228426006      109.87176008955063      108.42510365962433
C          112.07914568952472      107.27035241219087      110.46610819170540
H          112.87007330620465      107.87736010859564      108.71319510815670
O          111.02627277906389      117.71811434863599      112.75934991481759
C          112.78933573067647      105.94886300078943      110.24891847047198
C          111.88925989624120      105.08485842106641      109.36325506311495
H          113.75133470880482      106.10694901140863      109.76427968013220
H          112.93906442125362      105.45183970502200      111.20533782532726
C          112.48841394475384      103.71617414397613      109.05642299256250
H          110.92870135654424      104.94707161513124      109.86411971703014
H          111.69978391497416      105.60980162047105      108.42514515096302
C          113.66067613291922      103.77516861477653      108.06405518980662
H          112.82358800341930      103.24176488700094      109.97993261040068
H          111.70041157319571      103.09495845883136      108.62775090440627
C          113.75691316658029      102.42422118690919      107.38562320308083
H          113.48339909172121      104.54899094170483      107.31683336320336
H          114.58866421253990      103.98619328591388      108.59133974490975
N          114.19520131111808      101.45690163865925      108.19753954724401
C          114.19134326943750      100.05268439891711      107.84694684395100
H          114.63397949721058      101.72909593252317      109.06820421943108
O          111.31927467192436      107.46271466354358      111.40550611046541
C          114.96256636306525       99.22966369329002      108.86828008768229
H          113.15267105707716       99.70237591679044      107.80314224402652
H          114.63096663189908       99.93044574681801      106.84916683455874
C          114.29825770081261       99.20999400930313      110.24285451200311
H          115.01753290812439       98.20259907178921      108.50571228625404
H          115.97856561693467       99.61997078075252      108.94735828613643
C          115.05658660592771       98.31031729458967      111.21789626374245
H          114.24332570906590      100.21891104640352      110.65312246556164
H          113.27893423761120       98.83785411475412      110.12907690320937
C          114.27655828090087       98.08480966388429      112.50826401393678
H          115.25040331557980       97.34509158123599      110.74396333458549
H          116.02595561866953       98.75229194724685      111.45917261247155
C          115.03025688571807       97.19284609606009      113.48494518969932
H          114.07491604348378       99.04093907011102      112.99373896597038
H          113.31568409313515       97.62050967690649      112.28237494328503
N          114.17103301476476       96.82964351279435      114.59531832358964
H          115.37075239001226       96.26889128412937      113.00273945842648
H          115.92197800833156       97.70877053204809      113.86046770007263
C          114.38097871243350       95.73297372627781      115.33229694767557
H          113.31373295185270       97.36473918986650      114.69401725336051
O          113.39248223496602      102.22002941190013      106.22949789680921
C          113.32691674784456       95.46592515125239      116.39560416890303
C          113.97281631075226       95.19099081635279      117.75358088556089
H          112.63877983926619       96.30805596956640      116.45084824607727
H          112.76905162518511       94.57946203031216      116.08225957897105
C          112.94596499162097       94.77077968133052      118.80134499872854
H          114.71703021794735       94.40236927736808      117.62632271293880
H          114.50041705701352       96.08527699994897      118.09160964957059
C          113.59130733351149       94.32731382798869      120.11926793629692
H          112.26438820505602       95.59965175734087      118.99941089696567
H          112.35701902612105       93.93860265185461      118.41042963824147
C          114.31425808595684       95.47179575725576      120.80070957618273
H          112.81393635098648       93.95552195292321      120.78701462905127
H          114.31190840561558       93.53295633535726      119.92028394716081
N          113.52899424773028       96.26397654682566      121.53206783161663
O          115.34774121338063       94.99421779920151      115.16609535586046
C          114.02846579438150       97.37166331489630      122.31659847707843
H          112.55121452639627       96.01468088486430      121.64786818038350
C          113.27914774745233       97.50476560161958      123.63806837264372
H          115.09336202242213       97.19217751833074      122.49686254705384
H          113.92960452172923       98.30120020906857      121.74241533237070
C          113.89055156169138       98.59515130895424      124.51656442951119
H          112.23394266646909       97.74064764894592      123.43185396517217
H          113.30319407561035       96.54803096306063      124.16293515426349
C          112.99497875440467       98.94657623649856      125.70279092141183
H          114.86424191287713       98.25491759311227      124.87457136778876
H          114.05249299903419       99.49632866669121      123.91990426879896
C          113.66447378894703       99.91902105446677      126.67603619946536
H          112.07936760477051       99.40821266764613      125.32868095342417
H          112.71164497349807       98.03063517507265      126.22786618063017
C          114.64884735162705       99.25198946226341      127.64887897416085
H          114.19808265005101      100.68112431389548      126.10499306654172
H          112.89242955458488      100.42785788400124      127.25889710282223
N          114.05124528126883       98.38706981514258      128.65322221977937
H          115.37549515854126       98.65351387172871      127.09463856946560
H          115.19620321469679      100.03220324904511      128.18669319681487
H          113.55522673215015       97.62494031164594      128.20502058797103
H          113.37363870275159       98.91029384349278      129.19760100172059
O          115.52439781351347       95.65937183942913      120.67441334796085
C          109.61992570239633      130.52172904753911      108.78895087866681
C          109.09577774767898      129.29739574417380      109.51346441515304
C          108.96720299666316      130.65405976673145      107.40794530295646
C          109.39706750801123      129.51109696752755      106.49328745970311
H          107.88134205768397      130.66265349599942      107.52106382973871
H          109.27477424516078      131.60495702924891      106.97034862361571
C          108.86139677121395      129.66285455108567      105.06499861947277
H          110.48881619219826      129.48591355589437      106.46707769816291
H          109.04139085162636      128.56563829010381      106.90811649946086
C          109.47837897662660      128.59309627449693      104.18171630577802
H          107.77645042482089      129.55423974692900      105.05450680210008
H          109.11651749382439      130.65051834266180      104.67905169282676
N          110.76221047993147      128.81742096268835      103.88256827576591
O          109.93060517095263      128.29169273757196      109.55532665613896
O          107.98469346566027      129.25764942141058      110.00810185430417
H          109.52813681503201      127.46148519361087      110.15660440241557
H          110.70232101662705      130.46006301385015      108.67750153392068
H          109.36604404487652      131.39669647353219      109.38866735398140
C          111.62102829489029      127.90171744352595      103.16109040766582
H          111.19603385400319      129.66732658442851      104.21063848650419
C          112.28816941861440      128.58930975452378      101.97230209460967
H          112.38012222062646      127.52980649836826      103.85484877029700
H          111.00104393463987      127.06950807642676      102.82432875820146
C          113.32667041398689      127.70651003582995      101.27680519732263
H          111.52189048128264      128.86555696110469      101.24496838876222
H          112.76388759993010      129.51006988545745      102.31397050442708
C          114.49017972687614      127.26061182995878      102.16602399165798
H          112.83648468767987      126.82014976720967      100.86877927046832
H          113.73031399463957      128.26576820006912      100.42973796083506
C          115.25831531971328      128.43451128500507      102.77230054759376
H          114.12803294431437      126.60882990168676      102.96113876320231
H          115.17028374105628      126.66804444941179      101.54998120649419
C          116.51064227380527      127.99128485317532      103.51512520196050
H          115.55313916411691      129.11839966540677      101.97508332095323
H          114.62137189416316      128.97831421327140      103.47052065746159
N          116.17733047915536      127.28914182874834      104.73934280318998
H          117.11956571219920      127.33464058489812      102.88205464173357
H          117.12228712418325      128.86665958439696      103.76621244056454