3258
 energy: -3427.547048271803 gnorm: 0.000975099908 xtb: 6.6.1 (8d0f1dd)
C          125.18044610284953      110.22114927961051      119.19496072208244
C          123.83550866045570      110.90875626365890      118.99782789925293
C          123.85032380532101      111.85552671327169      117.80024895860552
C          122.52839576527661      112.60093271032811      117.63885693141690
C          122.52901253280035      113.52369559088766      116.42241265902152
C          121.23553106736836      114.32664207617086      116.31235375338348
C          121.20315600470687      115.21104119971794      115.06818525446639
C          119.93025406207477      116.05076468206455      114.99679968927475
C          119.83945463930651      116.86394383119804      113.70798757144043
C          118.60707804093336      117.76627116496149      113.67973383252213
C          118.41045866963276      118.41043256340078      112.30967605186014
C          117.34953766446564      119.51026975777056      112.28581320178807
C          115.97432546948527      119.04792069199546      112.75863828190630
C          114.89754200302448      120.09925747851217      112.49940301379696
C          113.53954223771015      119.66492071673159      113.04713174079133
C          112.49224603535035      120.77771867889686      113.03989550633044
C          111.94256688558153      121.12247648637231      111.65796384165816
C          110.91389334049421      122.24795909915036      111.75241453057056
C          110.17179446539387      122.49585559580657      110.44151932133001
C          109.01822588578470      123.48054123897199      110.62851661451606
C          108.06671267381594      123.56019895019415      109.43401659372171
C          107.35092877478228      122.23745306717345      109.15755786476790
C          106.11633360254488      122.41259967503611      108.27775448743877
C          105.40510489754364      121.09227227286188      107.97265442184982
C          106.12917300646133      120.24008867064080      106.93179890563366
C          105.51886269633026      118.84828499813233      106.75873056578600
C          104.10213817092192      118.88871437422468      106.19206013966266
C          103.56320145997198      117.51416248329434      105.79491876793196
C          103.40106995726322      116.51435226354410      106.94248839633156
C          102.55079352221699      117.00177000638138      108.11735485699505
C          101.14328069861477      117.43845033362523      107.72111893555402
C          100.29273793403596      117.86290905101008      108.91994517575112
C           99.78236958130979      116.69146766708424      109.75537240759769
C           99.11487204709863      117.16231799354067      111.04565361403219
C           98.63406864208791      115.98994876011277      111.89926657771244
C           98.29015497948913      116.37659654835696      113.33873172953078
C           99.52800614399739      116.73835829957730      114.15819121915408
C           99.20060504673272      116.98801305471170      115.62868558542677
C          100.44045678414568      117.26763635539656      116.48110938216931
C          101.17793694598629      118.53706907323814      116.06297836555110
C          102.33368692080178      118.88780093585352      116.99780336346672
C          103.08589002420642      120.11580864137669      116.49176775299236
C          104.24453095911845      120.53644836855929      117.39238015010720
C          105.00273283997254      121.71234521328040      116.78192583135070
C          106.21454027004988      122.14781699400028      117.60198601918459
C          107.03968693427841      123.18425794784646      116.84156517450361
C          108.37427476033066      123.50126164420053      117.51193779114294
C          109.14118908737814      124.62077399240370      116.80427694230195
C          109.59389900754739      124.24471913564167      115.39421164327929
C          110.28619376662657      125.39622424310646      114.66182281844520
C          111.72549298562450      125.67084694585307      115.10251936634043
C          112.70389464962294      124.61267022307325      114.59977698048728
C          114.16115446167042      124.96078314578811      114.89272489359101
C          115.10609956582815      123.91244038187537      114.31067205616473
C          116.57715210631855      124.21620921851913      114.58450364393165
C          117.48440296718856      123.12318259222069      114.02428723414471
C          118.95705436659318      123.33471554164690      114.36701555658652
C          119.82259159115191      122.18705510904979      113.85051980476148
C          121.30495923775885      122.38681452267710      114.15520428173883
C          122.14235801979036      121.13323859760166      113.89188555244897
C          122.08481908630537      120.60747549046593      112.45676702027625
C          122.63545830590664      121.58445002802159      111.42114620953139
C          122.62844487432054      120.98154127507384      110.01774466079262
C          123.20711488160347      121.94438778634287      108.98262350941258
C          123.07278837573124      121.44576072628468      107.54324896027327
C          123.89570552008031      120.19212213876995      107.25338649264458
C          123.78748974546363      119.77865707475817      105.78724017736302
C          124.58283857576139      118.51829624473937      105.44430515805811
C          124.02942682421212      117.26415684962821      106.11659727207622
C          124.70843723917106      115.98775150021885      105.62744836745743
C          124.16107251583938      114.75379873832949      106.34059585345456
C          124.84344053386222      113.46581366577384      105.88768657010803
C          124.29858552497966      112.24176692155253      106.61962095035547
C          125.00822396431967      110.95541657124473      106.20249363389824
C          124.39974098501030      109.72130333303546      106.86520692578857
C          125.12174887593844      108.43165430842407      106.47987615840681
C          124.54826885201001      107.21752848811546      107.20751429487198
C          125.30626946550981      105.93068036878235      106.88675860289183
C          124.76976710389604      104.74388919445290      107.68393927934353
C          125.57335728880466      103.46484770739717      107.45507768334046
C          125.01292990993949      102.29649505572608      108.26384037385039
C          125.86708221642587      101.03246155464834      108.16935639987857
C          125.27692905656274       99.90372701966625      109.01246662661796
C          126.14112086188265       98.64367527480067      109.04375668532207
C          125.48284523475739       97.55272915762296      109.88852003790367
C          126.34486151587940       96.29944928008669      110.03825194129927
C          125.61502127691607       95.14521253502660      110.73465795841381
C          125.22408658796377       95.47229289814904      112.17353421321629
C          124.49727410976759       94.33602714461291      112.89655050974413
C          123.85142775636010       94.87253610918404      114.17208136482394
C          123.08717327694285       93.85379295495990      115.01660694162800
C          123.97591417462388       92.82423874121496      115.72005309262227
C          123.32412589399217       92.31592132001103      117.00725507814866
C          124.13724748587923       91.21365208432017      117.68334059341508
C          123.73640941909397       90.95999077690698      119.13874294259747
C          122.31045532340445       90.43807215334721      119.31901781023221
C          122.07774569751361       89.92336339328303      120.74071515677396
C          120.65691429141364       89.38433502677988      120.95767954749451
C          119.68350122533316       90.40272268072293      121.55737642860760
C          119.88798568520716       90.60430673141751      123.05989891557979
C          118.73622361250378       91.34344166687954      123.74700274907242
C          118.62959232807948       92.81500757688960      123.35663183194886
C          117.53738363949456       93.54568322072477      124.13651436418465
C          117.44400545512615       95.02985206297367      123.76781829752559
C          118.50249045697464       95.88171484247333      124.46964947551690
C          118.66158034144870       97.27621733106037      123.86419846765476
C          117.41578563695086       98.15317101866512      123.96711134216342
C          117.66747357028748       99.53406113490958      123.36309777842149
C          116.39038987339453      100.36116573812201      123.22246385100790
C          116.57002427664895      101.55725824839547      122.29040183369531
C          115.26084284304775      102.30985941251841      122.06938456336027
C          115.40566271116018      103.43907739862493      121.05263008708648
C          114.11164298656406      104.23342152592654      120.89683022751670
C          114.22954685821657      105.35039212996246      119.86293497326810
C          112.96784394206264      106.20784993614612      119.81217705152058
C          113.02846387219496      107.28408813165620      118.73112342067866
C          111.78066480601539      108.16311053888823      118.74699814738929
C          111.71526696573832      109.12606651024976      117.56545222963844
C          110.40475364468710      109.90919642540656      117.53958493731119
C          110.32346262709345      110.84278284958303      116.33922010636874
H          109.56646828358183      109.20878076852769      117.50806808383889
H          110.31110264805557      110.49166865799309      118.45959282365362
H          112.55587258744710      109.82176935342319      117.61395378306126
H          111.80433326801452      108.55793306763668      116.63568077740719
H          110.89779920118316      107.52002811265453      118.72542389603065
H          111.75029786608933      108.72959906877229      119.68076648845935
H          113.91549230900830      107.90308670472629      118.87988483846475
H          113.11739911015576      106.80391030498973      117.75281109860606
H          112.10288405550746      105.56482167414565      119.62689554204410
H          112.81970020697017      106.68344861932405      120.78448204208148
H          115.08570800657813      105.98192624511807      120.10913108619661
H          114.41209367946139      104.91318691956693      118.87765523762349
H          113.30400885418163      103.55667907257070      120.60446505606747
H          113.84079228591696      104.66693154266349      121.86217210791646
H          116.20413748635865      104.11163941547197      121.37245614382017
H          115.69493747933490      103.01881980758013      120.08547366284968
H          114.49917605257919      101.60801223699643      121.71975258591561
H          114.91333668405004      102.72100031587243      123.01920987758925
H          117.31786126197001      102.23541388799042      122.70526512589308
H          116.94168942809074      101.20748499775362      121.32336692291416
H          115.59382579956956       99.72828904859031      122.82395900629172
H          116.06489075042869      100.70651921783274      124.20488519486440
H          118.39209948010550      100.07548600718147      123.97358457634130
H          118.11536188514074       99.39816144415067      122.37552288119790
H          116.59540071078239       97.67503194477507      123.42912096479384
H          117.11233633163637       98.25302289047292      125.01168154480462
H          119.49257870813322       97.78277350694573      124.36133752296035
H          118.92783803467402       97.17239182977001      122.80993692003676
H          118.24898919947557       95.96958391629627      125.52882952617044
H          119.46754215127298       95.37485144592105      124.40488261327118
H          117.55459450971793       95.13437446588092      122.68552218247302
H          116.45350444689193       95.40178774350071      124.03691214821178
H          116.58010263264067       93.06229520689456      123.92856197968878
H          117.72527933342735       93.45229003976370      125.20863904118234
H          119.59175406474569       93.29929711514399      123.53328651411412
H          118.40685061257160       92.89207517926148      122.29177572566610
H          117.79513346255111       90.83970363533980      123.51248565802291
H          118.88148070021849       91.27955752106907      124.82871483741880
H          119.98533948754277       89.62132358740534      123.52823531595654
H          120.81910244278224       91.14547058520080      123.24028304195451
H          119.79250699658594       91.35289207506513      121.03476049731232
H          118.66395610870215       90.04664970555280      121.39306237072103
H          120.26430173969695       89.04077118366175      119.99790933376039
H          120.69406690800048       88.51607981199483      121.61939468839330
H          122.79901779424848       89.12636430605278      120.93548532102392
H          122.28106081794510       90.72437475412927      121.45333245038984
H          121.59110409894340       91.22736491860232      119.09420390450069
H          122.14004224133025       89.61863530007872      118.61602486027135
H          124.42811007970776       90.22440686267097      119.55793896458265
H          123.85975923757923       91.88423239640998      119.70938972204087
H          124.04139803404182       90.28628237857806      117.11361895121659
H          125.19226955845372       91.49997825826522      117.66805518149359
H          123.22847394347775       93.15730944419116      117.69814870793161
H          122.32030079118131       91.94893550800521      116.78236209367135
H          124.18050233053010       91.98393329568725      115.05373966062869
H          124.93387880643647       93.28433261826281      115.97390640209785
H          122.54014230386309       94.41174818912444      115.78146951484568
H          122.34859178815722       93.34332203590434      114.39574006965933
H          124.62398653908298       95.33283762586247      114.79217967599705
H          123.14963208889293       95.65647510530232      113.87725758364866
H          123.72054206560371       93.92764819315488      112.24803563477302
H          125.19737799692587       93.53236682365504      113.13052403707179
H          126.12164221378589       95.73928457182845      112.73663717164625
H          124.56652575810507       96.34268634264046      112.16941429283523
H          124.71603185841677       94.89689837009230      110.16610895265248
H          126.26224885301963       94.26469503864223      110.72969421806472
H          126.65637769689808       95.96514994106668      109.04540668307138
H          127.24924951794890       96.54695204875101      110.59967022551390
H          125.26981152334263       97.96618576356097      110.87622294940901
H          124.53229310557842       97.27614707972367      109.42856153328034
H          126.29602083953742       98.27822987347371      108.02597744719175
H          127.12131897629860       98.88772462444157      109.46037851811312
H          125.14983885693884      100.26562440732269      110.03594705669737
H          124.28716238428467       99.64824141442487      108.62467809440979
H          125.94078888888913      100.71389333610699      107.12682674217835
H          126.87813465542527      101.25373478581270      108.51895181015739
H          124.94141076686574      102.59575261026151      109.31264271005365
H          124.00032531189549      102.07282010596535      107.91749169358202
H          125.56702056754632      103.21334118485741      106.39195779142783
H          126.61236774789585      103.63783755533983      107.74543235698505
H          124.79612784374234      104.99062857466762      108.74819393028721
H          123.72474522720132      104.57279567957619      107.41481727995607
H          125.23095011074197      105.71788530330349      105.81782644263932
H          126.36463619539272      106.07056407077734      107.12001736276092
H          124.59536122413087      107.39639127546702      108.28419796709495
H          123.49593517457278      107.09508379469352      106.93816020473264
H          125.04608842390984      108.27747684200679      105.40107635126250
H          126.18259207858658      108.52806281975882      106.72427883325879
H          124.44385026538033      109.84292530560735      107.94993099694437
H          123.34579715023425      109.64187246711442      106.58711043701601
H          124.95353446252034      110.85176346113691      105.11604009697615
H          126.06535083609606      111.02495003177283      106.47003362068983
H          124.41588799670562      112.38578431296270      107.69708110528755
H          123.22942997003456      112.14796607579690      106.41320276849713
H          124.69841986387516      113.33725534272239      104.81238704638830
H          125.91816792583802      113.54481350071167      106.06805724766043
H          124.29693396939729      114.87274715247052      107.41808575125562
H          123.08750428238666      114.67931716467959      106.15175343398082
H          124.55722925903770      115.88292082011300      104.55032774427350
H          125.78462688594318      116.05948957358756      105.80253412751308
H          124.16610280531552      117.33655066956635      107.19648365231212
H          122.95711706982681      117.19775012297073      105.92149768829140
H          124.55780136489912      118.37653058597238      104.36049480216852
H          125.62783189570258      118.65583113623440      105.73200726615070
H          122.73741131641144      119.61036410968431      105.54141170220085
H          124.14310904801758      120.60208627356872      105.16243413465061
H          124.94276543896656      120.38096213648537      107.50157338959234
H          123.54243972433912      119.37742811480877      107.88507808372621
H          122.01967614185189      121.24094770286173      107.33304114620979
H          123.39182292423843      122.24159416795615      106.86522703761048
H          122.68633770244638      122.90194916227865      109.06730872432398
H          124.26160925528740      122.12412006231369      109.20506292932474
H          123.20705141644925      120.05616684149844      110.02673191569015
H          121.60233600877136      120.72986682073170      109.74013761510967
H          122.03526272898745      122.49587316342250      111.41759518704180
H          123.65742595069258      121.86032609377222      111.69239756732344
H          122.66611383553709      119.68232697950856      112.40903858631481
H          121.05404470695929      120.35574695393770      112.20185275192192
H          123.18289352693363      121.35001772212800      114.14635901940970
H          121.79808903499524      120.34056607260290      114.56163913004411
H          121.69056886035345      123.22351521670105      113.57038313761689
H          121.41604645960966      122.65192061077774      115.21014201849458
H          119.49342599450320      121.25377403957714      114.31349709781527
H          119.67825460679860      122.09522221081114      112.77242245364938
H          119.30112318344834      124.27635432609021      113.93277444762759
H          119.06667501529181      123.41163743543382      115.45158707387428
H          117.16346867003055      122.15884413856431      114.42738705477549
H          117.36828482799513      123.07871010253403      112.93809793269487
H          116.84282310788450      125.17730970497151      114.13826670681506
H          116.73383739374127      124.29916679687933      115.66290100674296
H          114.85898287294809      122.93805582791585      114.74093464963052
H          114.94698005894108      123.84493712751481      113.23122959569041
H          114.39538080388428      125.93848667338133      114.46397176061288
H          114.31292066655747      125.02910188344653      115.97244342173570
H          112.47004834844056      123.64906781519929      115.05687882627036
H          112.58330526873334      124.50690465279709      113.51920662838118
H          112.02889980901223      126.64223598607283      114.70409786126395
H          111.77834596813535      125.73392959763351      116.19056723928357
H          110.29232561463991      125.17262964445804      113.59193297648216
H          109.69214006569007      126.30271723599824      114.80307588510514
H          110.25885469992912      123.38119404657793      115.44462699597987
H          108.72032607083425      123.95550498019870      114.80819869284846
H          108.50418514479541      125.50732349882264      116.74976068722711
H          110.01463256788360      124.87974837402209      117.40628191191750
H          108.19011053296710      123.80040689305235      118.54688848179143
H          108.99088747562136      122.59981448270769      117.53268463857870
H          107.22669130230933      122.79996884612490      115.83799380390782
H          106.45958379006233      124.10497715176378      116.74270392211592
H          105.88877222972306      122.55711569162308      118.56044473776393
H          106.83386737937968      121.27390382693360      117.81276982581171
H          105.34364575725770      121.42321774479973      115.78396328739913
H          104.32243463363605      122.55927550966092      116.66241240865517
H          103.86621860136698      120.80967085339522      118.37949895129611
H          104.92864175093422      119.69457634248991      117.52194773228760
H          103.47799382777714      119.90061835968261      115.49391435113429
H          102.38611599709651      120.94986465066147      116.39571384493475
H          101.95210942325990      119.07718231662018      118.00348011014458
H          103.02201305582953      118.04135541000134      117.05940136984714
H          101.57645326166286      118.40939852608530      115.05486344727819
H          100.47199298753958      119.37080004572373      116.03804010055202
H          100.13471105421362      117.36294025890348      117.52630375288629
H          101.12432441640991      116.41826836973856      116.41375423427392
H           98.51135783427171      117.83239607900693      115.70743015406023
H           98.69123145889246      116.10877547624933      116.03193134749272
H          100.25270492449106      115.92472004642525      114.08710735030776
H           99.98795995829407      117.63283952198982      113.73938653175598
H           97.59101312742330      117.21596798389429      113.33592324385923
H           97.78822720808894      115.53186739598060      113.81661363060587
H           97.75415364063572      115.54668075476988      111.42596932371605
H           99.41279023403732      115.22525658277873      111.92265801569158
H           99.83731332353366      117.75444642327412      111.61016635138139
H           98.26992683948212      117.81318405541778      110.80834185430594
H           99.07283853414320      116.10491085688855      109.16661290930310
H          100.61674979028591      116.03585718034866      110.01438602911843
H          100.88433785819612      118.52885024235741      109.55345575589226
H           99.43162358980287      118.43388501631634      108.56468481767848
H          101.22090215181096      118.28612443620146      107.04046158977771
H          100.64023375769725      116.62765551885145      107.18924207447905
H          102.48713662903931      116.18732471174097      108.84131317375028
H          103.05018170536776      117.83901881826598      108.60793416963756
H          102.94919672661142      115.60593827308143      106.53401722005113
H          104.38934470053182      116.24152552521129      107.32098994147863
H          102.59714037197944      117.64846389337647      105.30453355557081
H          104.23752690032067      117.07470514852938      105.05537807494468
H          103.42746483615203      119.35083705120606      106.91279353607730
H          104.10815298410968      119.51960730953870      105.29894176591280
H          106.15181399888701      118.27111917099975      106.07886659342878
H          105.51978649101699      118.33885114003984      107.72372933344396
H          106.11584433226129      120.75988451818114      105.96982499731033
H          107.17289242388271      120.12457624469987      107.23050547690582
H          105.30878526380734      120.52068411902047      108.89902642535230
H          104.39873255881371      121.31537056935800      107.61227989032540
H          105.41684273715795      123.07259385749184      108.79445535135375
H          106.39769967094709      122.89817487910992      107.34152848324369
H          108.04123706895157      121.54826587368721      108.67199464414685
H          107.04259872866355      121.79373522909151      110.10733134570231
H          107.32028857039667      124.33116171025540      109.64265117038437
H          108.61769353551365      123.87319296122386      108.54409294034464
H          108.44103011700633      123.18120235199493      111.50687266676474
H          109.42427324399999      124.47533290417357      110.82803532862630
H          110.86550214600581      122.87745182927340      109.68872872824514
H          109.78009771352369      121.54269873046610      110.08277801090622
H          110.18466394201324      121.99234289320039      112.52627641936590
H          111.40984819145372      123.16571805517393      112.07410853739157
H          112.75349402836451      121.42270889989426      110.99163730884594
H          111.46928051430720      120.23563799127606      111.22822895498145
H          111.65349095719964      120.46568094349242      113.66658253068209
H          112.92398019522379      121.67592140873728      113.48721642434678
H          113.16801979235545      118.80907562109357      112.47721445058694
H          113.67621173398722      119.33401161566816      114.07981445982276
H          115.19290816794695      121.03738191686855      112.97457594396317
H          114.82526888900438      120.28146632037131      111.42537680087199
H          115.70656013133603      118.12242014498464      112.24520959659685
H          116.01234452983020      118.83559148421065      113.82916699521500
H          117.67833604076847      120.34317714601796      112.90956014174753
H          117.26165271228233      119.88107352870989      111.26237379024487
H          119.36195048447786      118.84128144920673      111.98707003109313
H          118.14190514379246      117.63630670161643      111.58879315392267
H          117.72700257256024      117.17337227888470      113.93284054172408
H          118.71248659385630      118.54491773053401      114.43773537765408
H          120.73812822312334      117.47652998645187      113.59828142215953
H          119.80258430203787      116.17974421378550      112.85775509342952
H          119.06334202202655      115.39049888006143      115.06401221430133
H          119.89525219005884      116.72598010465113      115.85547455817984
H          122.07367433434970      115.87188464197992      115.06930516008721
H          121.26890157001556      114.58127882117147      114.17840602235242
H          120.38808501480227      113.63859679940505      116.28568257494490
H          121.12452008744947      114.95138283379180      117.20250213729071
H          123.37584621159489      114.21129111370989      116.49021590992611
H          122.66128650106111      112.92670204098233      115.51729184731104
H          121.71638285729040      111.87718289271635      117.54196879058891
H          122.33798392823313      113.19153130374193      118.53878002723195
H          124.65991839728950      112.57945118116093      117.92305055439044
H          124.05508738997571      111.28340106301978      116.89201697238511
H          123.06029007755953      110.15440876944031      118.85032528751820
H          123.58256337669970      111.47146883167434      119.89977080310142
H          125.46428579636174      109.67785775774092      118.29575209378208
H          125.95718081899892      110.95261355522483      119.40862889285012
H          125.13416499023846      109.51665879707977      120.02241105014447
H          110.37339455055768      110.27288349780034      115.41316718308011
H          109.38671824113683      111.39532374489011      116.34772991273653
H          111.14791482751991      111.55290399443754      116.35100202102153
C          106.01946041679822      114.62011208031437      103.46918861160748
C          107.34750120357144      114.08174043044082      103.98731999392844
C          108.23153257118537      113.55247337470702      102.86055819802901
C          109.64855331413602      113.18682595415008      103.30455461216806
C          109.68306900111212      112.12791265572885      104.40376587651100
C          111.08751406232803      111.57788512094865      104.64157003483930
C          111.10776477217505      110.57726362644920      105.79406948166638
C          112.47698990985623      109.93685207952126      106.00297170410944
C          112.45742461880600      108.94405430645295      107.16202256167639
C          113.79440688633959      108.23571551571233      107.35831623705022
C          113.73083452182634      107.22724181386195      108.50184915046241
C          115.03093606489323      106.44692649081489      108.67136905899842
C          114.91464618338740      105.39138641474807      109.76700492642679
C          116.16794533088471      104.52914180668525      109.88858383665756
C          115.97863572144030      103.41329189562171      110.91134334549699
C          117.15590315719747      102.44328346379757      110.96233025132403
C          116.91168355692415      101.33112464493901      111.97812234758588
C          117.95043235887601      100.21540432446706      111.92479096688712
C          117.60899408360272       99.09710135893067      112.90678267847991
C          118.51250776383701       97.87564964411966      112.76322982729029
C          118.04299997774238       96.73281480296048      113.66028340097499