3795
 energy: -5103.684876872966 gnorm: 0.000908612689 xtb: 6.6.1 (8d0f1dd)
C          105.29729927649049      128.32473451284366      115.09800996017067
C          104.77853594500382      126.98762322397836      114.63071072220363
C          106.03786842005421      128.95884041677559      113.91380017421456
C          106.78410734954991      130.24416718681260      114.27332371915425
H          106.74408866875822      128.22613545249104      113.51715891135299
H          105.30865235954577      129.17447594256348      113.13042723808432
C          108.11175870298673      129.96334090434408      114.97501855130692
H          106.98377155546981      130.79749451956783      113.35390531971542
H          106.15423024736488      130.86409615964311      114.91180980417823
C          109.09524082348786      129.24970773898863      114.06631476416665
H          108.56921749035440      130.90770610481883      115.27929450427673
H          107.95326720195894      129.35701045740637      115.86597909235640
N          109.94526015407872      128.44108046387635      114.67565973015611
O          103.61126267772160      127.06185900320440      114.03287020691045
O          105.40221853659952      125.95157492090826      114.74480541513152
H          103.33239190561288      126.15890668447115      113.65084661856565
H          105.96301159798752      128.16333620593113      115.94480649198138
H          104.45993226377718      128.95378715669497      115.39686474585936
C          110.89831687473355      127.60324414770065      113.97805885991990
H          109.96933687858903      128.37554509339898      115.69342004820302
C          111.14157688490182      126.33403711117917      114.78431880254976
H          110.48194585586731      127.36218892547035      112.99562129830893
H          111.83855254047650      128.14941078304045      113.83776152824387
C          112.14552475102799      125.40900856890234      114.10572198888727
H          111.50535200528971      126.61820137380876      115.77274171000850
H          110.19394760135458      125.80788266184598      114.90764032108021
C          112.40421752427250      124.16883483788658      114.95820654659575
H          111.75060944007379      125.10181213367245      113.13609361397793
H          113.07454832440233      125.95413880011905      113.93832858062743
C          113.31887926183737      123.14876032065925      114.28525719632147
H          112.83687341622952      124.46930800887311      115.91354617337369
H          111.44762301205689      123.68196229137862      115.15299869712986
C          114.71480110484573      123.69478684910766      114.00194048193353
H          113.41282678012739      122.27705577706598      114.93518511168337
H          112.86262880313640      122.81518334243157      113.35230656127287
N          115.56840764593369      122.64601443210240      113.48868709172696
H          114.66609688973763      124.50973670367101      113.27232105869147
H          115.16491676764483      124.07253536144731      114.92234925632336
C          116.84269080078934      122.48246443418100      113.82632266692877
H          115.13616067595319      121.97899670973999      112.85077409367308
O          109.11946096742119      129.43432850608113      112.83717510956561
C          117.48348554908627      121.23233088459574      113.26584699440295
C          117.27120616785109      120.10008814744633      114.27334102545412
H          117.01973695694880      120.96762873131406      112.31719407441962
H          118.54959397514165      121.40330043422897      113.11570187904302
C          117.79287503944616      118.77122266073215      113.74277344502620
H          117.78400232849103      120.34768902028202      115.20475161738985
H          116.20646999939146      120.00357562735891      114.49229298070084
C          117.59387288720038      117.65734142730570      114.77141502526295
H          117.26416144099566      118.51150625673434      112.82397539057330
H          118.85632816541124      118.86192607537825      113.51058795854537
C          118.35157830303810      116.42212423924278      114.33780194642929
H          117.98741201077161      117.98086437329609      115.73518581146014
H          116.53385177253772      117.44101024287153      114.89435695601532
N          117.78844533634815      115.73090183907962      113.34414168103528
C          118.36540326913980      114.51670026771700      112.80418838142890
H          116.88116025159819      116.00241073842821      112.97843487009622
O          117.45760939737008      123.25220020185459      114.56615694021028
C          117.76248376478266      114.18279626432525      111.44574211569541
H          119.44889206189877      114.65700326076727      112.73548798885339
H          118.18497887223843      113.68554161330412      113.49853942648895
C          118.13215548249123      115.19033125309961      110.35754260502017
H          118.09838279876350      113.18773050592614      111.15069988113319
H          116.67564511910031      114.14894980658723      111.54409496430009
C          117.56728894305708      114.76399670306364      109.00313425592796
H          117.72219167848287      116.16526397267914      110.62562792445982
H          119.21882247922625      115.27943936253195      110.29637394534640
C          117.53723759076162      115.87962323290846      107.96019532525830
H          118.13355318036334      113.91891451214545      108.60757865956053
H          116.54415013157281      114.41784149996388      109.14850180865713
C          118.91636362978882      116.23759208397883      107.41158422391715
N          118.79343778893032      117.21576514231165      106.35032699986203
H          119.55849987399739      116.65468423752017      108.18875006816023
H          119.39939455941986      115.32948059212687      107.02924998727217
C          119.59885213526027      118.26024864312457      106.15733920655833
H          118.01045615536793      117.10131223610250      105.70925858959600
O          119.42755260897485      116.11512973484665      114.84949186471515
C          119.16762346467752      119.16991810713823      105.02339669639764
C          118.41207704356904      120.37444254025742      105.59306719043232
H          120.05516123655428      119.52163970324500      104.49927913947798
H          118.52090466501156      118.62957362592780      104.33412041786897
C          117.92524189576788      121.30782978884321      104.48806543451816
H          117.55470140858887      120.01928331435521      106.16885603804712
H          119.07418987464970      120.91855419757364      106.27043009058869
C          117.28413912861004      122.58375791745763      105.04185825262910
H          118.76763569280534      121.59236004766011      103.85397267170931
H          117.21044887542377      120.77871549327853      103.85569312091808
C          116.00551120124921      122.33008022284486      105.81872645030538
H          117.97920263130563      123.10104902951895      105.70605905575540
H          117.04421657736582      123.25175714050114      104.21185963927186
N          114.95083634430831      122.01005932062117      105.06455687432134
C          113.58764863079089      121.97197147532313      105.54543002310793
H          115.04693674159635      121.94970649009701      104.05488621580011
H          116.91661359558508      115.54677474274558      107.12560900606957
H          117.07155138299628      116.76929411579495      108.38905144437982
O          120.59139380115856      118.50245555083764      106.84508803361430
O          115.94733438181574      122.42977924717219      107.04245462382316
C          112.74417304624252      122.97366189574228      104.75782873146251
H          113.18575346079511      120.96110310910041      105.41931948903805
H          113.59992328777888      122.22700003845202      106.60772665487642
C          111.29551609350175      123.04281234330226      105.23166453190255
H          113.20160038593451      123.96181989477753      104.84604773889926
H          112.78073561860711      122.68504098079903      103.70622122272947
C          110.47971108293022      123.96605108665153      104.32751910508092
H          110.85461987354007      122.04445517219291      105.22232103775981
H          111.28552779760777      123.41608348183226      106.25660945180161
C          108.97954745188976      123.96064842767593      104.62387021476329
H          110.86157701689243      124.98572746918495      104.40912970178161
H          110.62497450937822      123.64738252245317      103.29386173159415
C          108.59595432253045      124.72851724534159      105.89035696457518
H          108.46179928650250      124.42477174781550      103.78383234391620
H          108.63054703541029      122.93231105364610      104.71487443607731
N          108.63814146601652      123.90922907190976      107.08315847303527
H          109.26164609291540      125.58980524317201      106.02085581699144
H          107.57195502004777      125.10368306316468      105.81864971263263
C          107.63921395153203      123.85326645069729      107.97621566800001
H          109.45057326172966      123.32855104173485      107.21560336476547
C          107.92183791456915      123.00755564845717      109.20273216684225
C          107.48922549158401      123.79554058184196      110.44092105379922
H          107.36231804343176      122.07360235790475      109.12544627149461
H          108.98095055911023      122.75832952999352      109.25700226761715
C          107.97235670578637      123.19886374061274      111.75593220537665
H          107.88895849930574      124.80863729760286      110.36353968100507
H          106.40087074776230      123.87647658618788      110.44643892370514
C          107.63144605625517      124.13150336959691      112.91583727256302
H          107.53033381526888      122.21372807761881      111.92080269216569
H          109.05601313846245      123.07156896244888      111.72294438570384
C          108.30288177449388      123.72556559282015      114.21139444008244
H          107.97030584139353      125.14142559529719      112.66977566178178
H          106.55273013906429      124.18773687488761      113.07668543941797
N          107.80917792839959      124.32807234487022      115.29824897760066
C          108.26591040487492      124.02635972502904      116.63726407983570
H          107.02393487541038      124.96045631401640      115.20501168316721
O          106.59015275527391      124.47296947930016      107.83322205872298
C          108.30406329464894      125.26910431464799      117.51801125567385
H          107.59817526158319      123.28246140720128      117.08885168460250
H          109.25739730498685      123.58024511109006      116.53399395621467
C          108.50407145269342      124.91417002922617      118.99220848812919
H          109.09086125027997      125.94430650340549      117.18189485337903
H          107.35627945117248      125.80336843157787      117.42150128431926
C          109.71823465657472      124.03090052065536      119.27948841718612
H          108.60155444633158      125.84461598426761      119.55219300802202
H          107.60844945713148      124.40809286018929      119.35887649119893
C          111.03769393309565      124.71994589081912      118.93463590113397
H          109.70576442161985      123.76995644377263      120.34006101290437
H          109.63083225453143      123.10585264203438      118.71040256682772
C          112.22014426806926      123.76309260504055      118.95320924443168
H          110.97408905394479      125.14266481553025      117.93282676575021
H          111.21222029248148      125.53946018282700      119.63306461068218
N          112.47879765393054      123.24250827532597      120.28356913259434
H          112.03748765501867      122.93280162421533      118.26283620981931
H          113.12988233339905      124.27037950487323      118.61400829922344
O          109.22768289804628      122.91656676172448      114.26105022885821
C          113.48163836825827      122.39347612877695      120.53627433932732
H          111.80847491859312      123.44094067454375      121.01473303909587
C          113.60919425595870      121.99866303534660      121.99250322524767
C          112.62817544558872      120.86977949422941      122.31151225820739
H          114.63195878772842      121.67192361158860      122.18070452542740
H          113.38992600733516      122.85822374505820      122.62850392143753
C          112.66303593957646      120.49165111418419      123.78709875972457
H          111.61749493026478      121.20228681851574      122.06808317431856
H          112.86183879126149      119.99226663759794      121.70482559833899
C          111.61201009632543      119.43305001222801      124.09269797145001
H          113.64852198164077      120.11253199406599      124.06189094092578
H          112.48083107852693      121.37878041135292      124.39426546097394
C          111.69816716955911      118.88551970857868      125.50750549089139
H          110.60923075218038      119.83013134851619      123.93360561696647
H          111.73629531280491      118.59456078481630      123.40211219511788
N          110.60577388501345      118.20990773162903      125.87785647534402
O          114.23066393590632      121.96808111775410      119.66171169709439
C          110.48521638672136      117.55604452364193      127.16477425640997
H          109.86353945439664      118.06650269124403      125.19985470467095
C          109.31050109190703      116.58828975461236      127.19347130934696
H          111.42185951318794      117.02583243928719      127.37741796560502
H          110.35870251036782      118.32023100744469      127.94066461651319
C          107.95999564992586      117.30776336213765      127.17926909562993
H          109.38268281750416      115.92220781588627      126.33078586629426
H          109.40006671252983      115.98001622324125      128.09424957684192
C          106.79032982785810      116.34684856961556      127.40706528453775
H          107.94775492608227      118.07633299167034      127.95391971588700
H          107.83852092756902      117.80333535772262      126.21484276979649
C          106.66919249179882      115.90296298463535      128.86354126088537
H          105.85971712581309      116.83018479652816      127.10369703826066
H          106.93051879843334      115.46838862038872      126.77707271299158
C          105.78610604655830      114.66628452531884      129.02368809487371
H          107.65241519545280      115.65265381376719      129.26428071723126
H          106.26348865564451      116.71517389104405      129.46897119096062
N          105.81665013082711      114.21374765646748      130.39579589620166
H          104.74393186664355      114.87326996020606      128.76740612086300
H          106.15895092908305      113.86669677935544      128.37245317825082
C          104.72917090680393      114.07984340434403      131.16095180270923
H          106.74367821206629      114.15828379709127      130.81257104196300
O          112.67144318654060      119.04589944093657      126.23953169658930
C          105.01736207390913      113.78236624950800      132.62317382379948
C          105.06726867594672      112.27784855748276      132.91548803631554
H          105.96284995452385      114.24225810521898      132.91206537774838
H          104.20903657185042      114.22688336589894      133.20612566800085
C          106.35156444133420      111.61453914115289      132.42218056001130
H          104.99268635474228      112.13417063617169      133.99559330761429
H          104.19722736599218      111.79926011416920      132.45919111909336
C          106.39064320977656      110.13028066543103      132.79503645104487
H          106.43776077404988      111.72129954868618      131.33944967440303
H          107.21380746025025      112.11100746404877      132.87282213593286
C          107.73790201945216      109.50873052901656      132.45981051318915
H          106.24915651413967      110.03483693857288      133.87404092225466
H          105.59423294447825      109.58573854494770      132.28847877508184
N          107.69602247972122      108.56270628200004      131.51763523164590
C          108.84402912763839      107.76881293282696      131.13406019567137
H          106.81363888734462      108.35183350500489      131.06167981789025
O          103.58495536730359      114.17915531972389      130.72299128078831
C          108.51147102241116      106.27999755834921      131.05665048499310
H          109.22300630082981      108.11310560375115      130.16620586801051
H          109.61313653759019      107.94920887359987      131.88754406349150
C          107.69660228251973      105.92197541324170      129.81539976432427
H          109.45027525225156      105.72399161528908      131.03661534458143
H          107.97042233029177      105.98708358395301      131.95788740932028
C          107.46052844547485      104.41470807725462      129.72999596178263
H          106.73792138492171      106.44143699778571      129.84244004646740
H          108.24471964739503      106.26008146363957      128.93633864562102
C          106.65226085015611      103.99805083940836      128.50168505741354
H          108.42083191554498      103.89550859301752      129.70870978483993
H          106.92321073201065      104.09325386698477      130.62424233549723
C          107.43030854302877      104.21628145976894      127.20546335882874
H          106.41348712296026      102.93541406435483      128.58540489250584
H          105.71320900165105      104.55131912585271      128.46641671440196
N          106.71163349012004      103.70129733836259      126.06101282473088
H          107.59755816950566      105.27751880434758      127.01924176323952
H          108.39725323410903      103.70749986434900      127.28648602007124
C          106.42249667104336      104.40736236536137      124.96130041917610
H          106.41803362503592      102.73869584346393      126.11377486371794
O          108.77351350389065      109.85908819173189      133.02385889727287
C          105.66049719344370      103.64965801610541      123.89037838390811
C          106.26210879191473      102.28745581176501      123.54478722051465
H          104.62485653274896      103.52876324830166      124.21762797011149
H          105.64563344809117      104.26797924683886      122.99133553736644
C          107.66531173286951      102.43579787012072      122.96172883130527
H          106.29158937950731      101.63011582282070      124.41545284424380
H          105.62153949247325      101.80492219099663      122.80598092075741
C          108.41153127965657      101.10043364579624      122.86783134285876
H          107.58182000124722      102.86787641186814      121.96306496085712
H          108.24614100762413      103.12435179553754      123.57946174683049
C          108.73255903268226      100.57549634430211      124.25431478936308
H          107.78540605587300      100.36659317040112      122.36000730248207
H          109.33505775169191      101.24136988375216      122.30771758019151
N          109.87679395503760      101.03900975041464      124.77260101435394
O          106.73103037968426      105.58861785271043      124.83262162061114
C          110.31052222617073      100.70638576409551      126.11327685057313
H          110.44924838641715      101.67654247257143      124.22684481652290
C          111.80699502918939      100.40835029369387      126.19621582929695
H          110.06663982454917      101.53323264295292      126.79211467386564
H          109.72795225109400       99.83278951015220      126.41880267529490
C          112.64210674500990      101.66612548670648      125.97288752592594
H          112.01549669408462      100.00101737499060      127.18718245714960
H          112.06786484515897       99.64590760595654      125.46084381406143
C          114.13830707509227      101.47393987599986      126.21277307003636
H          112.49718313499164      102.01791740662829      124.95080258977534
H          112.28301361272517      102.44506817080895      126.64965262485950
C          114.86217126721445      102.80466668433675      126.01521740901684
H          114.31072468619118      101.10432897171358      127.22613128372873
H          114.53120839892463      100.72907724232589      125.51844764400400
C          116.36594906400198      102.75023209646592      126.23232603190331
H          114.66449692026929      103.17241783504446      125.00958775679243
H          114.46540691750712      103.54797279562197      126.70864366062000
N          117.04213847934108      101.86756434603045      125.29975808320124
H          116.76875534854025      103.76564341722704      126.13108487971866
H          116.59726109146025      102.39981087672946      127.24500102268811
C          118.32727507251387      101.55041861281669      125.45343275751881
H          116.52744878526019      101.48591657420155      124.50990789336520
O          107.98175358872162       99.81303992383975      124.85918850376532
C          118.86914024658768      100.55510031605772      124.44659230500112
C          119.23855953516590      101.22667512236907      123.12095387739578
H          119.75061797284113      100.07612452614019      124.87664386014222
H          118.10837162528931       99.79763599997774      124.25563302099756
C          119.72594951345030      100.19341825397690      122.10699887649079
H          118.35589233247298      101.72782483002747      122.72194534069497
H          120.01277559083574      101.97880191016588      123.29019028720212
C          120.13524453053043      100.81970624373616      120.77031884511757
H          120.57046721937614       99.63652243018682      122.51687414276016
H          118.92056584153919       99.47987234416416      121.92270332545537
C          121.25228621485057      101.83155611901503      120.93580958807647
H          120.48131438272152      100.02583378217432      120.10633892918698
H          119.28074047089150      101.31939174321424      120.31316915343901
N          122.39659031792365      101.31449597768682      121.38352651772554
C          123.57957664968377      102.07715370125398      121.72340622569547
H          122.46877436343422      100.30202645223949      121.45292204707663
O          119.02060525127727      102.02838606361487      126.35369084556743
C          124.31573417286369      101.41976988879877      122.88967233394541
H          124.25352407980746      102.13725153342008      120.85990972130027
H          123.26545547431405      103.09313545090075      121.97141575952587
C          123.48454186966715      101.37582083998250      124.17314806930439
H          124.56913585166940      100.39834366930764      122.59904694345644
H          125.24552664757756      101.96045416903993      123.06868759927140
C          123.36452543150978      102.73518028603951      124.85997339170679
H          122.48596217051656      101.00540631857922      123.93299482352155
H          123.93703153777552      100.66637070981780      124.86754644487398
C          122.32410274500471      102.70366908109452      125.97751841062320
H          124.33460302815966      103.03022642605339      125.26488159879526
H          123.07053909512544      103.49006283624672      124.12801383199567
C          122.07905322838123      104.08853589509765      126.56532118159042
H          121.37784318948525      102.33292755970611      125.57810489480131
H          122.63906742865174      102.01572135496846      126.76299855697226
N          120.84718965217039      104.11472432040834      127.33035546289834
H          122.89976101291776      104.39432526245126      127.22099720928506
H          122.01289241099889      104.81706804777815      125.74703908463265
C          120.61546900247554      104.98044330078685      128.31793556569750
H          120.15143688642523      103.42072814324041      127.07788653386645
O          121.09892701062802      103.02348607060796      120.67210204891187
C          119.27576441415856      104.82348788146933      129.01745670025250
C          118.68469196997519      106.18577526361545      129.39031919739892
H          118.60315402230232      104.24946650988149      128.38154365029288
H          119.46437243485747      104.25105825310737      129.92966928718732
C          117.56030381589834      106.10568140547423      130.42253909966848
H          119.49492761377108      106.79317030671690      129.79993570043928
H          118.31734821677260      106.67917627137551      128.48971494603575
C          116.29979786847082      105.42408373606003      129.87716868326683
H          117.92166746252110      105.57262907667260      131.30485158329853
H          117.29580773759034      107.11539071785421      130.74519667731659
C          115.26248076205060      105.25803465468407      130.97207064154233
H          115.87286904283683      106.02518811117588      129.07332460734585
H          116.54995680099756      104.44080522110094      129.47717966956222
N          115.55589280408218      104.29091944906570      131.85136011698611
O          121.42982169393373      105.84040844186657      128.65393004493734
C          114.72908599857557      103.93568499458284      132.98304039794462
H          116.42987870401737      103.79573345795505      131.76319358256984
C          114.61882459305484      102.41817564618920      133.13214517077702
H          115.15353205499848      104.36239926964795      133.90006123687846
H          113.75079079078235      104.39089672770818      132.82003081865741
C          114.08762527806245      101.70829605051244      131.88506832570260
H          115.60627634924511      102.01687345181244      133.37169597303284
H          113.96252334371418      102.20879739459272      133.97775594431172
C          112.66270281082926      102.11565247149403      131.51749049326017
H          114.74675312969818      101.91189697564975      131.03853558319554
H          114.11187887347189      100.63194838293207      132.06952595321161
C          112.10439985845366      101.25246636436455      130.38690430176720
H          112.01835073645563      102.01696730860557      132.39427512888440
H          112.65850390874036      103.16400020992262      131.21264457777224
C          110.68107202875672      101.66249102541607      129.97963467564631
H          112.75896998599238      101.32792614357237      129.51387327902796
H          112.09090335923625      100.20754400649530      130.70312988891627
N          110.57733426560900      102.96050805866675      129.33357771133731
H          110.27999134455246      100.91977811165556      129.28358385056151
H          110.03730284771721      101.67799357295144      130.86311423494777
H          111.19420550483930      102.98389176206706      128.52729073354871
H          110.89449107845491      103.68771071892046      129.96652086071509
O          114.24258956474857      105.93500057363757      131.04592519108141
C          100.10493897052791      123.07682077052020      113.69897756911762
C          100.62674620290387      122.22397178452034      114.82956176295683
C           99.48380929937316      122.22914636803121      112.58990972260999
C           98.24552076554053      121.48523390180348      113.10151585264163
H           99.20508684398561      122.87563321619139      111.75778162685477
H          100.23189439949135      121.52386059133909      112.22692133330095
C           97.75455653123812      120.39607134966553      112.15437185582579
H           98.45041309874874      121.05214851839354      114.08152111718530
H           97.43824903804531      122.20758047645808      113.23791686410634
C           98.62354938167935      119.16337538705740      111.97056231663142
H           96.78148813604004      120.03177822749080      112.49516302439226
H           97.59674843286066      120.81336874259104      111.15685620134354
N           99.69311878613927      119.00167073748597      112.75521808063151
O          100.70266027098825      122.87844313740489      115.96914179251499
O          100.92934970755481      121.05344344081044      114.71486166339832
H          100.98440428881901      122.29237506225714      116.73678434966622
H          100.95268494049523      123.65452761925782      113.32229569399411
H           99.38716822243950      123.78649580540811      114.11073119306954
C          100.61132385126248      117.89315625113112      112.55169823395504
H           99.98848377858833      119.70872461253441      113.41549232263083
C          101.85867548273103      118.04934486819245      113.41146130973246
H          100.09706315182697      116.95465671975035      112.78401007794268
H          100.88170770301896      117.86079909028582      111.48932084169965
C          102.96511129857228      117.08179359092624      112.99087967004671
H          102.22106721584004      119.07498084597653      113.32387015115569
H          101.60637682578856      117.88590565095416      114.46037506404303
C          104.22483297224912      117.28138499959199      113.83252927137025
H          102.61265703691257      116.05483254684789      113.09308711899118
H          103.20819532524102      117.25262275855471      111.94078130015910
C          105.46440844633770      116.60036102492766      113.25233133746376
H          104.43544889984881      118.34963412866136      113.90990366418515
H          104.05076785559379      116.91258130184832      114.84471024899557
C          105.34961506022024      115.07996804671605      113.14725788813107
H          105.67674150091929      116.99464832590577      112.25773085511273
H          106.32062675198843      116.84560565325403      113.88172472544852
N          104.91488613969962      114.48679061293187      114.39141482412900
H          104.62516733820367      114.79551447355647      112.38554766667855
H          106.32678841833841      114.67003383692307      112.86777228597553