      -----------------------------------------------------------      
     |                   =====================                   |     
     |                           x T B                           |     
     |                   =====================                   |     
     |                         S. Grimme                         |     
     |          Mulliken Center for Theoretical Chemistry        |     
     |                    University of Bonn                     |     
      -----------------------------------------------------------      

   * xtb version 6.6.1 (8d0f1dd) compiled by 'stahn@M-Bot' on 2023-08-01

   xtb is free software: you can redistribute it and/or modify it under
   the terms of the GNU Lesser General Public License as published by
   the Free Software Foundation, either version 3 of the License, or
   (at your option) any later version.
   
   xtb is distributed in the hope that it will be useful,
   but WITHOUT ANY WARRANTY; without even the implied warranty of
   MERCHANTABILITY or FITNESS FOR A PARTICULAR PURPOSE.  See the
   GNU Lesser General Public License for more details.
   
   Cite this work as:
   * C. Bannwarth, E. Caldeweyher, S. Ehlert, A. Hansen, P. Pracht,
     J. Seibert, S. Spicher, S. Grimme, WIREs Comput. Mol. Sci., 2020, 11,
     e01493. DOI: 10.1002/wcms.1493
   
   for GFN2-xTB:
   * C. Bannwarth, S. Ehlert and S. Grimme., J. Chem. Theory Comput., 2019,
     15, 1652-1671. DOI: 10.1021/acs.jctc.8b01176
   for GFN1-xTB:
   * S. Grimme, C. Bannwarth, P. Shushkov, J. Chem. Theory Comput., 2017,
     13, 1989-2009. DOI: 10.1021/acs.jctc.7b00118
   for GFN0-xTB:
   * P. Pracht, E. Caldeweyher, S. Ehlert, S. Grimme, ChemRxiv, 2019, preprint.
     DOI: 10.26434/chemrxiv.8326202.v1
   for GFN-FF:
   * S. Spicher and S. Grimme, Angew. Chem. Int. Ed., 2020, 59, 15665-15673.
     DOI: 10.1002/anie.202004239
   
   for ALPB and GBSA implicit solvation:
   * S. Ehlert, M. Stahn, S. Spicher, S. Grimme, J. Chem. Theory Comput.,
     2021, 17, 4250-4261. DOI: 10.1021/acs.jctc.1c00471
   
   for DFT-D4:
   * E. Caldeweyher, C. Bannwarth and S. Grimme, J. Chem. Phys., 2017,
     147, 034112. DOI: 10.1063/1.4993215
   * E. Caldeweyher, S. Ehlert, A. Hansen, H. Neugebauer, S. Spicher,
     C. Bannwarth and S. Grimme, J. Chem. Phys., 2019, 150, 154122.
     DOI: 10.1063/1.5090222
   * E. Caldeweyher, J.-M. Mewes, S. Ehlert and S. Grimme, Phys. Chem. Chem. Phys.
     2020, 22, 8499-8512. DOI: 10.1039/D0CP00502A
   
   for sTDA-xTB:
   * S. Grimme and C. Bannwarth, J. Chem. Phys., 2016, 145, 054103.
     DOI: 10.1063/1.4959605
   
   in the mass-spec context:
   * V. Asgeirsson, C. Bauer and S. Grimme, Chem. Sci., 2017, 8, 4879.
     DOI: 10.1039/c7sc00601b
   * J. Koopman and S. Grimme, ACS Omega 2019, 4, 12, 15120-15133.
     DOI: 10.1021/acsomega.9b02011
   
   for metadynamics refer to:
   * S. Grimme, J. Chem. Theory Comput., 2019, 155, 2847-2862
     DOI: 10.1021/acs.jctc.9b00143
   
   for SPH calculations refer to:
   * S. Spicher and S. Grimme, J. Chem. Theory Comput., 2021, 17, 1701-1714
     DOI: 10.1021/acs.jctc.0c01306
   
   with help from (in alphabetical order)
   P. Atkinson, C. Bannwarth, F. Bohle, G. Brandenburg, E. Caldeweyher
   M. Checinski, S. Dohm, S. Ehlert, S. Ehrlich, I. Gerasimov, C. Hölzer
   A. Katbashev, J. Koopman, C. Lavigne, S. Lehtola, F. März, M. Müller,
   F. Musil, H. Neugebauer, J. Pisarek, C. Plett, P. Pracht, F. Pultar,
   J. Seibert, P. Shushkov, S. Spicher, M. Stahn, M. Steiner, T. Strunk,
   J. Stückrath, T. Rose, and J. Unsleber
   
 * started run on 2024/10/08 at 02:08:51.241     

           -------------------------------------------------
          |                Calculation Setup                |
           -------------------------------------------------

          program call               : /home/abt-grimme/AK-bin/xtb input.xyz --input input.inp --opt
          hostname                   : boar013.thch.uni-bonn.de
          coordinate file            : input.xyz
          omp threads                :                     8

   ID    Z sym.   atoms
    1    6 C      1-4, 7, 10, 19, 21, 24, 27, 30, 33, 39, 42, 43, 46, 49, 52,
                  56, 59, 62, 65, 68, 71, 75, 78, 79, 82, 85, 88, 92, 98,
                  101, 104, 107, 110, 116, 118, 119, 122, 125, 128, 132, 135,
                  138, 141, 144, 147, 154, 156, 157, 160, 163, 166, 171, 173,
                  176, 179, 182, 185, 191, 194, 195, 198, 201, 204, 208, 211,
                  214, 217, 220, 223, 229, 232, 233, 236, 239, 242, 247, 249,
                  252, 255, 258, 261, 267, 270, 271, 274, 277, 280, 284, 287,
                  290, 293, 296, 299, 305, 308, 309, 312, 315, 318, 323, 325,
                  328, 331, 334, 337, 346-349, 352, 355, 364, 366, 369, 372,
                  375, 378, 384, 387, 388, 391, 394, 397, 401, 404, 407, 410,
                  413, 416, 420, 423, 424, 427, 430, 433, 437, 443, 446, 449,
                  452, 455, 461, 463, 464, 467, 470, 473, 477, 480, 483, 486,
                  489, 492, 499, 501, 502, 505, 508, 511, 516, 518, 521, 524,
                  527, 530, 536, 539, 540, 543, 546, 549, 553, 556, 559, 562,
                  565, 568, 574, 577, 578, 581, 584, 587, 592, 594, 597, 600,
                  603, 606, 612, 615, 616, 619, 622, 625, 629, 632, 635, 638,
                  641, 644, 650, 653, 654, 657, 660, 663, 668, 670, 673, 676,
                  679, 682, 691-694, 697, 700, 709, 711, 714, 717, 720, 723,
                  729, 732, 733, 736, 739, 742, 746, 749, 752, 755, 758, 761,
                  765, 768, 769, 772, 775, 778, 782, 788, 791, 794, 797, 800,
                  806, 808, 809, 812, 815, 818, 822, 825, 828, 831, 834, 837,
                  844, 846, 847, 850, 853, 856, 861, 863, 866, 869, 872, 875,
                  881, 884, 885, 888, 891, 894, 898, 901, 904, 907, 910, 913,
                  919, 922, 923, 926, 929, 932, 937, 939, 942, 945, 948, 951,
                  957, 960, 961, 964, 967, 970, 974, 977, 980, 983, 986, 989,
                  995, 998, 999, 1002, 1005, 1008, 1013, 1015, 1018, 1021,
                  1024, 1027, 1036-1039, 1042, 1045, 1054, 1056, 1059, 1062,
                  1065, 1068, 1074, 1077, 1078, 1081, 1084, 1087, 1091, 1094,
                  1097, 1100, 1103, 1106, 1110, 1113, 1114, 1117, 1120, 1123,
                  1127, 1133, 1136, 1139, 1142, 1145, 1151, 1153, 1154, 1157,
                  1160, 1163, 1167, 1170, 1173, 1176, 1179, 1182, 1189, 1191,
                  1192, 1195, 1198, 1201, 1206, 1208, 1211, 1214, 1217, 1220,
                  1226, 1229, 1230, 1233, 1236, 1239, 1243, 1246, 1249, 1252,
                  1255, 1258, 1264, 1267, 1268, 1271, 1274, 1277, 1282, 1284,
                  1287, 1290, 1293, 1296, 1302, 1305, 1306, 1309, 1312, 1315,
                  1319, 1322, 1325, 1328, 1331, 1334, 1340, 1343, 1344, 1347,
                  1350, 1353, 1358, 1360, 1363, 1366, 1369, 1372, 1381-1384,
                  1387, 1390, 1399, 1401, 1404, 1407, 1410, 1413, 1419, 1422,
                  1423, 1426, 1429, 1432, 1436, 1439, 1442, 1445, 1448, 1451,
                  1455, 1458, 1459, 1462, 1465, 1468, 1472, 1478, 1481, 1484,
                  1487, 1490, 1496, 1498, 1499, 1502, 1505, 1508, 1512, 1515,
                  1518, 1521, 1524, 1527, 1534, 1536, 1537, 1540, 1543, 1546,
                  1551, 1553, 1556, 1559, 1562, 1565, 1571, 1574, 1575, 1578,
                  1581, 1584, 1588, 1591, 1594, 1597, 1600, 1603, 1609, 1612,
                  1613, 1616, 1619, 1622, 1627, 1629, 1632, 1635, 1638, 1641,
                  1647, 1650, 1651, 1654, 1657, 1660, 1664, 1667, 1670, 1673,
                  1676, 1679, 1685, 1688, 1689, 1692, 1695, 1698, 1703, 1705,
                  1708, 1711, 1714, 1717, 1726-1729, 1732, 1735, 1744, 1746,
                  1749, 1752, 1755, 1758, 1764, 1767, 1768, 1771, 1774, 1777,
                  1781, 1784, 1787, 1790, 1793, 1796, 1800, 1803, 1804, 1807,
                  1810, 1813, 1817, 1823, 1826, 1829, 1832, 1835, 1841, 1843,
                  1844, 1847, 1850, 1853, 1857, 1860, 1863, 1866, 1869, 1872,
                  1879, 1881, 1882, 1885, 1888, 1891, 1896, 1898, 1901, 1904,
                  1907, 1910, 1916, 1919, 1920, 1923, 1926, 1929, 1933, 1936,
                  1939, 1942, 1945, 1948, 1954, 1957, 1958, 1961, 1964, 1967,
                  1972, 1974, 1977, 1980, 1983, 1986, 1992, 1995, 1996, 1999,
                  2002, 2005, 2009, 2012, 2015, 2018, 2021, 2024, 2030, 2033,
                  2034, 2037, 2040, 2043, 2048, 2050, 2053, 2056, 2059, 2062,
                  2071-2074, 2077, 2080, 2089, 2091, 2094, 2097, 2100, 2103,
                  2109, 2112, 2113, 2116, 2119, 2122, 2126, 2129, 2132, 2135,
                  2138, 2141, 2145, 2148, 2149, 2152, 2155, 2158, 2162, 2168,
                  2171, 2174, 2177, 2180, 2186, 2188, 2189, 2192, 2195, 2198,
                  2202, 2205, 2208, 2211, 2214, 2217, 2224, 2226, 2227, 2230,
                  2233, 2236, 2241, 2243, 2246, 2249, 2252, 2255, 2261, 2264,
                  2265, 2268, 2271, 2274, 2278, 2281, 2284, 2287, 2290, 2293,
                  2299, 2302, 2303, 2306, 2309, 2312, 2317, 2319, 2322, 2325,
                  2328, 2331, 2337, 2340, 2341, 2344, 2347, 2350, 2354, 2357,
                  2360, 2363, 2366, 2369, 2375, 2378, 2379, 2382, 2385, 2388,
                  2393, 2395, 2398, 2401, 2404, 2407, 2416-2419, 2422, 2425,
                  2434, 2436, 2439, 2442, 2445, 2448, 2454, 2457, 2458, 2461,
                  2464, 2467, 2471, 2474, 2477, 2480, 2483, 2486, 2490, 2493,
                  2494, 2497, 2500, 2503, 2507, 2513, 2516, 2519, 2522, 2525,
                  2531, 2533, 2534, 2537, 2540, 2543, 2547, 2550, 2553, 2556,
                  2559, 2562, 2569, 2571, 2572, 2575, 2578, 2581, 2586, 2588,
                  2591, 2594, 2597, 2600, 2606, 2609, 2610, 2613, 2616, 2619,
                  2623, 2626, 2629, 2632, 2635, 2638, 2644, 2647, 2648, 2651,
                  2654, 2657, 2662, 2664, 2667, 2670, 2673, 2676, 2682, 2685,
                  2686, 2689, 2692, 2695, 2699, 2702, 2705, 2708, 2711, 2714,
                  2720, 2723, 2724, 2727, 2730, 2733, 2738, 2740, 2743, 2746,
                  2749, 2752, 2761-2764, 2767, 2770, 2779, 2781, 2784, 2787,
                  2790, 2793, 2799, 2802, 2803, 2806, 2809, 2812, 2816, 2819,
                  2822, 2825, 2828, 2831, 2835, 2838, 2839, 2842, 2845, 2848,
                  2852, 2858, 2861, 2864, 2867, 2870, 2876, 2878, 2879, 2882,
                  2885, 2888, 2892, 2895, 2898, 2901, 2904, 2907, 2914, 2916,
                  2917, 2920, 2923, 2926, 2931, 2933, 2936, 2939, 2942, 2945,
                  2951, 2954, 2955, 2958, 2961, 2964, 2968, 2971, 2974, 2977,
                  2980, 2983, 2989, 2992, 2993, 2996, 2999, 3002, 3007, 3009,
                  3012, 3015, 3018, 3021, 3027, 3030, 3031, 3034, 3037, 3040,
                  3044, 3047, 3050, 3053, 3056, 3059, 3065, 3068, 3069, 3072,
                  3075, 3078, 3083, 3085, 3088, 3091, 3094, 3097, 3106-3109,
                  3112, 3115, 3124, 3126, 3129, 3132, 3135, 3138, 3144, 3147,
                  3148, 3151, 3154, 3157, 3161, 3164, 3167, 3170, 3173, 3176,
                  3180, 3183, 3184, 3187, 3190, 3193, 3197, 3203, 3206, 3209,
                  3212, 3215, 3221, 3223, 3224, 3227, 3230, 3233, 3237, 3240,
                  3243, 3246, 3249, 3252, 3259, 3261, 3262, 3265, 3268, 3271,
                  3276, 3278, 3281, 3284, 3287, 3290, 3296, 3299, 3300, 3303,
                  3306, 3309, 3313, 3316, 3319, 3322, 3325, 3328, 3334, 3337,
                  3338, 3341, 3344, 3347, 3352, 3354, 3357, 3360, 3363, 3366,
                  3372, 3375, 3376, 3379, 3382, 3385, 3389, 3392, 3395, 3398,
                  3401, 3404, 3410, 3413, 3414, 3417, 3420, 3423, 3428, 3430,
                  3433, 3436, 3439, 3442, 3451-3454, 3457, 3460, 3469, 3471,
                  3474, 3477, 3480, 3483, 3489, 3492, 3493, 3496, 3499, 3502,
                  3506, 3509, 3512, 3515, 3518, 3521, 3525, 3528, 3529, 3532,
                  3535, 3538, 3542, 3548, 3551, 3554, 3557, 3560, 3566, 3568,
                  3569, 3572, 3575, 3578, 3582, 3585, 3588, 3591, 3594, 3597,
                  3604, 3606, 3607, 3610, 3613, 3616, 3621, 3623, 3626, 3629,
                  3632, 3635, 3641, 3644, 3645, 3648, 3651, 3654, 3658, 3661,
                  3664, 3667, 3670, 3673, 3679, 3682, 3683, 3686, 3689, 3692,
                  3697, 3699, 3702, 3705, 3708, 3711, 3717, 3720, 3721, 3724,
                  3727, 3730, 3734, 3737, 3740, 3743, 3746, 3749, 3755, 3758,
                  3759, 3762, 3765, 3768, 3773, 3775, 3778, 3781, 3784, 3787
    2    1 H      5, 6, 8, 9, 11, 12, 16-18, 20, 22, 23, 25, 26, 28, 29, 31,
                  32, 34, 35, 37, 38, 40, 44, 45, 47, 48, 50, 51, 53, 54, 57,
                  60, 61, 63, 64, 66, 67, 69, 70, 73, 74, 76, 80, 81, 83, 84,
                  86, 87, 89, 90, 93-95, 99, 100, 102, 103, 105, 106, 108,
                  109, 111, 112, 114, 115, 117, 120, 121, 123, 124, 126, 127,
                  129, 130, 133, 136, 137, 139, 140, 142, 143, 145, 146, 148,
                  149, 151, 152, 155, 158, 159, 161, 162, 164, 165, 167, 168,
                  172, 174, 175, 177, 178, 180, 181, 183, 184, 186, 187, 189,
                  190, 192, 196, 197, 199, 200, 202, 203, 205, 206, 209, 212,
                  213, 215, 216, 218, 219, 221, 222, 224, 225, 227, 228, 230,
                  234, 235, 237, 238, 240, 241, 243, 244, 248, 250, 251, 253,
                  254, 256, 257, 259, 260, 262, 263, 265, 266, 268, 272, 273,
                  275, 276, 278, 279, 281, 282, 285, 288, 289, 291, 292, 294,
                  295, 297, 298, 300, 301, 303, 304, 306, 310, 311, 313, 314,
                  316, 317, 319, 320, 324, 326, 327, 329, 330, 332, 333, 335,
                  336, 338, 339, 341-344, 350, 351, 353, 354, 356, 357,
                  361-363, 365, 367, 368, 370, 371, 373, 374, 376, 377, 379,
                  380, 382, 383, 385, 389, 390, 392, 393, 395, 396, 398, 399,
                  402, 405, 406, 408, 409, 411, 412, 414, 415, 418, 419, 421,
                  425, 426, 428, 429, 431, 432, 434, 435, 438-440, 444, 445,
                  447, 448, 450, 451, 453, 454, 456, 457, 459, 460, 462, 465,
                  466, 468, 469, 471, 472, 474, 475, 478, 481, 482, 484, 485,
                  487, 488, 490, 491, 493, 494, 496, 497, 500, 503, 504, 506,
                  507, 509, 510, 512, 513, 517, 519, 520, 522, 523, 525, 526,
                  528, 529, 531, 532, 534, 535, 537, 541, 542, 544, 545, 547,
                  548, 550, 551, 554, 557, 558, 560, 561, 563, 564, 566, 567,
                  569, 570, 572, 573, 575, 579, 580, 582, 583, 585, 586, 588,
                  589, 593, 595, 596, 598, 599, 601, 602, 604, 605, 607, 608,
                  610, 611, 613, 617, 618, 620, 621, 623, 624, 626, 627, 630,
                  633, 634, 636, 637, 639, 640, 642, 643, 645, 646, 648, 649,
                  651, 655, 656, 658, 659, 661, 662, 664, 665, 669, 671, 672,
                  674, 675, 677, 678, 680, 681, 683, 684, 686-689, 695, 696,
                  698, 699, 701, 702, 706-708, 710, 712, 713, 715, 716, 718,
                  719, 721, 722, 724, 725, 727, 728, 730, 734, 735, 737, 738,
                  740, 741, 743, 744, 747, 750, 751, 753, 754, 756, 757, 759,
                  760, 763, 764, 766, 770, 771, 773, 774, 776, 777, 779, 780,
                  783-785, 789, 790, 792, 793, 795, 796, 798, 799, 801, 802,
                  804, 805, 807, 810, 811, 813, 814, 816, 817, 819, 820, 823,
                  826, 827, 829, 830, 832, 833, 835, 836, 838, 839, 841, 842,
                  845, 848, 849, 851, 852, 854, 855, 857, 858, 862, 864, 865,
                  867, 868, 870, 871, 873, 874, 876, 877, 879, 880, 882, 886,
                  887, 889, 890, 892, 893, 895, 896, 899, 902, 903, 905, 906,
                  908, 909, 911, 912, 914, 915, 917, 918, 920, 924, 925, 927,
                  928, 930, 931, 933, 934, 938, 940, 941, 943, 944, 946, 947,
                  949, 950, 952, 953, 955, 956, 958, 962, 963, 965, 966, 968,
                  969, 971, 972, 975, 978, 979, 981, 982, 984, 985, 987, 988,
                  990, 991, 993, 994, 996, 1000, 1001, 1003, 1004, 1006,
                  1007, 1009, 1010, 1014, 1016, 1017, 1019, 1020, 1022, 1023,
                  1025, 1026, 1028, 1029, 1031-1034, 1040, 1041, 1043, 1044,
                  1046, 1047, 1051-1053, 1055, 1057, 1058, 1060, 1061, 1063,
                  1064, 1066, 1067, 1069, 1070, 1072, 1073, 1075, 1079, 1080,
                  1082, 1083, 1085, 1086, 1088, 1089, 1092, 1095, 1096, 1098,
                  1099, 1101, 1102, 1104, 1105, 1108, 1109, 1111, 1115, 1116,
                  1118, 1119, 1121, 1122, 1124, 1125, 1128-1130, 1134, 1135,
                  1137, 1138, 1140, 1141, 1143, 1144, 1146, 1147, 1149, 1150,
                  1152, 1155, 1156, 1158, 1159, 1161, 1162, 1164, 1165, 1168,
                  1171, 1172, 1174, 1175, 1177, 1178, 1180, 1181, 1183, 1184,
                  1186, 1187, 1190, 1193, 1194, 1196, 1197, 1199, 1200, 1202,
                  1203, 1207, 1209, 1210, 1212, 1213, 1215, 1216, 1218, 1219,
                  1221, 1222, 1224, 1225, 1227, 1231, 1232, 1234, 1235, 1237,
                  1238, 1240, 1241, 1244, 1247, 1248, 1250, 1251, 1253, 1254,
                  1256, 1257, 1259, 1260, 1262, 1263, 1265, 1269, 1270, 1272,
                  1273, 1275, 1276, 1278, 1279, 1283, 1285, 1286, 1288, 1289,
                  1291, 1292, 1294, 1295, 1297, 1298, 1300, 1301, 1303, 1307,
                  1308, 1310, 1311, 1313, 1314, 1316, 1317, 1320, 1323, 1324,
                  1326, 1327, 1329, 1330, 1332, 1333, 1335, 1336, 1338, 1339,
                  1341, 1345, 1346, 1348, 1349, 1351, 1352, 1354, 1355, 1359,
                  1361, 1362, 1364, 1365, 1367, 1368, 1370, 1371, 1373, 1374,
                  1376-1379, 1385, 1386, 1388, 1389, 1391, 1392, 1396-1398,
                  1400, 1402, 1403, 1405, 1406, 1408, 1409, 1411, 1412, 1414,
                  1415, 1417, 1418, 1420, 1424, 1425, 1427, 1428, 1430, 1431,
                  1433, 1434, 1437, 1440, 1441, 1443, 1444, 1446, 1447, 1449,
                  1450, 1453, 1454, 1456, 1460, 1461, 1463, 1464, 1466, 1467,
                  1469, 1470, 1473-1475, 1479, 1480, 1482, 1483, 1485, 1486,
                  1488, 1489, 1491, 1492, 1494, 1495, 1497, 1500, 1501, 1503,
                  1504, 1506, 1507, 1509, 1510, 1513, 1516, 1517, 1519, 1520,
                  1522, 1523, 1525, 1526, 1528, 1529, 1531, 1532, 1535, 1538,
                  1539, 1541, 1542, 1544, 1545, 1547, 1548, 1552, 1554, 1555,
                  1557, 1558, 1560, 1561, 1563, 1564, 1566, 1567, 1569, 1570,
                  1572, 1576, 1577, 1579, 1580, 1582, 1583, 1585, 1586, 1589,
                  1592, 1593, 1595, 1596, 1598, 1599, 1601, 1602, 1604, 1605,
                  1607, 1608, 1610, 1614, 1615, 1617, 1618, 1620, 1621, 1623,
                  1624, 1628, 1630, 1631, 1633, 1634, 1636, 1637, 1639, 1640,
                  1642, 1643, 1645, 1646, 1648, 1652, 1653, 1655, 1656, 1658,
                  1659, 1661, 1662, 1665, 1668, 1669, 1671, 1672, 1674, 1675,
                  1677, 1678, 1680, 1681, 1683, 1684, 1686, 1690, 1691, 1693,
                  1694, 1696, 1697, 1699, 1700, 1704, 1706, 1707, 1709, 1710,
                  1712, 1713, 1715, 1716, 1718, 1719, 1721-1724, 1730, 1731,
                  1733, 1734, 1736, 1737, 1741-1743, 1745, 1747, 1748, 1750,
                  1751, 1753, 1754, 1756, 1757, 1759, 1760, 1762, 1763, 1765,
                  1769, 1770, 1772, 1773, 1775, 1776, 1778, 1779, 1782, 1785,
                  1786, 1788, 1789, 1791, 1792, 1794, 1795, 1798, 1799, 1801,
                  1805, 1806, 1808, 1809, 1811, 1812, 1814, 1815, 1818-1820,
                  1824, 1825, 1827, 1828, 1830, 1831, 1833, 1834, 1836, 1837,
                  1839, 1840, 1842, 1845, 1846, 1848, 1849, 1851, 1852, 1854,
                  1855, 1858, 1861, 1862, 1864, 1865, 1867, 1868, 1870, 1871,
                  1873, 1874, 1876, 1877, 1880, 1883, 1884, 1886, 1887, 1889,
                  1890, 1892, 1893, 1897, 1899, 1900, 1902, 1903, 1905, 1906,
                  1908, 1909, 1911, 1912, 1914, 1915, 1917, 1921, 1922, 1924,
                  1925, 1927, 1928, 1930, 1931, 1934, 1937, 1938, 1940, 1941,
                  1943, 1944, 1946, 1947, 1949, 1950, 1952, 1953, 1955, 1959,
                  1960, 1962, 1963, 1965, 1966, 1968, 1969, 1973, 1975, 1976,
                  1978, 1979, 1981, 1982, 1984, 1985, 1987, 1988, 1990, 1991,
                  1993, 1997, 1998, 2000, 2001, 2003, 2004, 2006, 2007, 2010,
                  2013, 2014, 2016, 2017, 2019, 2020, 2022, 2023, 2025, 2026,
                  2028, 2029, 2031, 2035, 2036, 2038, 2039, 2041, 2042, 2044,
                  2045, 2049, 2051, 2052, 2054, 2055, 2057, 2058, 2060, 2061,
                  2063, 2064, 2066-2069, 2075, 2076, 2078, 2079, 2081, 2082,
                  2086-2088, 2090, 2092, 2093, 2095, 2096, 2098, 2099, 2101,
                  2102, 2104, 2105, 2107, 2108, 2110, 2114, 2115, 2117, 2118,
                  2120, 2121, 2123, 2124, 2127, 2130, 2131, 2133, 2134, 2136,
                  2137, 2139, 2140, 2143, 2144, 2146, 2150, 2151, 2153, 2154,
                  2156, 2157, 2159, 2160, 2163-2165, 2169, 2170, 2172, 2173,
                  2175, 2176, 2178, 2179, 2181, 2182, 2184, 2185, 2187, 2190,
                  2191, 2193, 2194, 2196, 2197, 2199, 2200, 2203, 2206, 2207,
                  2209, 2210, 2212, 2213, 2215, 2216, 2218, 2219, 2221, 2222,
                  2225, 2228, 2229, 2231, 2232, 2234, 2235, 2237, 2238, 2242,
                  2244, 2245, 2247, 2248, 2250, 2251, 2253, 2254, 2256, 2257,
                  2259, 2260, 2262, 2266, 2267, 2269, 2270, 2272, 2273, 2275,
                  2276, 2279, 2282, 2283, 2285, 2286, 2288, 2289, 2291, 2292,
                  2294, 2295, 2297, 2298, 2300, 2304, 2305, 2307, 2308, 2310,
                  2311, 2313, 2314, 2318, 2320, 2321, 2323, 2324, 2326, 2327,
                  2329, 2330, 2332, 2333, 2335, 2336, 2338, 2342, 2343, 2345,
                  2346, 2348, 2349, 2351, 2352, 2355, 2358, 2359, 2361, 2362,
                  2364, 2365, 2367, 2368, 2370, 2371, 2373, 2374, 2376, 2380,
                  2381, 2383, 2384, 2386, 2387, 2389, 2390, 2394, 2396, 2397,
                  2399, 2400, 2402, 2403, 2405, 2406, 2408, 2409, 2411-2414,
                  2420, 2421, 2423, 2424, 2426, 2427, 2431-2433, 2435, 2437,
                  2438, 2440, 2441, 2443, 2444, 2446, 2447, 2449, 2450, 2452,
                  2453, 2455, 2459, 2460, 2462, 2463, 2465, 2466, 2468, 2469,
                  2472, 2475, 2476, 2478, 2479, 2481, 2482, 2484, 2485, 2488,
                  2489, 2491, 2495, 2496, 2498, 2499, 2501, 2502, 2504, 2505,
                  2508-2510, 2514, 2515, 2517, 2518, 2520, 2521, 2523, 2524,
                  2526, 2527, 2529, 2530, 2532, 2535, 2536, 2538, 2539, 2541,
                  2542, 2544, 2545, 2548, 2551, 2552, 2554, 2555, 2557, 2558,
                  2560, 2561, 2563, 2564, 2566, 2567, 2570, 2573, 2574, 2576,
                  2577, 2579, 2580, 2582, 2583, 2587, 2589, 2590, 2592, 2593,
                  2595, 2596, 2598, 2599, 2601, 2602, 2604, 2605, 2607, 2611,
                  2612, 2614, 2615, 2617, 2618, 2620, 2621, 2624, 2627, 2628,
                  2630, 2631, 2633, 2634, 2636, 2637, 2639, 2640, 2642, 2643,
                  2645, 2649, 2650, 2652, 2653, 2655, 2656, 2658, 2659, 2663,
                  2665, 2666, 2668, 2669, 2671, 2672, 2674, 2675, 2677, 2678,
                  2680, 2681, 2683, 2687, 2688, 2690, 2691, 2693, 2694, 2696,
                  2697, 2700, 2703, 2704, 2706, 2707, 2709, 2710, 2712, 2713,
                  2715, 2716, 2718, 2719, 2721, 2725, 2726, 2728, 2729, 2731,
                  2732, 2734, 2735, 2739, 2741, 2742, 2744, 2745, 2747, 2748,
                  2750, 2751, 2753, 2754, 2756-2759, 2765, 2766, 2768, 2769,
                  2771, 2772, 2776-2778, 2780, 2782, 2783, 2785, 2786, 2788,
                  2789, 2791, 2792, 2794, 2795, 2797, 2798, 2800, 2804, 2805,
                  2807, 2808, 2810, 2811, 2813, 2814, 2817, 2820, 2821, 2823,
                  2824, 2826, 2827, 2829, 2830, 2833, 2834, 2836, 2840, 2841,
                  2843, 2844, 2846, 2847, 2849, 2850, 2853-2855, 2859, 2860,
                  2862, 2863, 2865, 2866, 2868, 2869, 2871, 2872, 2874, 2875,
                  2877, 2880, 2881, 2883, 2884, 2886, 2887, 2889, 2890, 2893,
                  2896, 2897, 2899, 2900, 2902, 2903, 2905, 2906, 2908, 2909,
                  2911, 2912, 2915, 2918, 2919, 2921, 2922, 2924, 2925, 2927,
                  2928, 2932, 2934, 2935, 2937, 2938, 2940, 2941, 2943, 2944,
                  2946, 2947, 2949, 2950, 2952, 2956, 2957, 2959, 2960, 2962,
                  2963, 2965, 2966, 2969, 2972, 2973, 2975, 2976, 2978, 2979,
                  2981, 2982, 2984, 2985, 2987, 2988, 2990, 2994, 2995, 2997,
                  2998, 3000, 3001, 3003, 3004, 3008, 3010, 3011, 3013, 3014,
                  3016, 3017, 3019, 3020, 3022, 3023, 3025, 3026, 3028, 3032,
                  3033, 3035, 3036, 3038, 3039, 3041, 3042, 3045, 3048, 3049,
                  3051, 3052, 3054, 3055, 3057, 3058, 3060, 3061, 3063, 3064,
                  3066, 3070, 3071, 3073, 3074, 3076, 3077, 3079, 3080, 3084,
                  3086, 3087, 3089, 3090, 3092, 3093, 3095, 3096, 3098, 3099,
                  3101-3104, 3110, 3111, 3113, 3114, 3116, 3117, 3121-3123,
                  3125, 3127, 3128, 3130, 3131, 3133, 3134, 3136, 3137, 3139,
                  3140, 3142, 3143, 3145, 3149, 3150, 3152, 3153, 3155, 3156,
                  3158, 3159, 3162, 3165, 3166, 3168, 3169, 3171, 3172, 3174,
                  3175, 3178, 3179, 3181, 3185, 3186, 3188, 3189, 3191, 3192,
                  3194, 3195, 3198-3200, 3204, 3205, 3207, 3208, 3210, 3211,
                  3213, 3214, 3216, 3217, 3219, 3220, 3222, 3225, 3226, 3228,
                  3229, 3231, 3232, 3234, 3235, 3238, 3241, 3242, 3244, 3245,
                  3247, 3248, 3250, 3251, 3253, 3254, 3256, 3257, 3260, 3263,
                  3264, 3266, 3267, 3269, 3270, 3272, 3273, 3277, 3279, 3280,
                  3282, 3283, 3285, 3286, 3288, 3289, 3291, 3292, 3294, 3295,
                  3297, 3301, 3302, 3304, 3305, 3307, 3308, 3310, 3311, 3314,
                  3317, 3318, 3320, 3321, 3323, 3324, 3326, 3327, 3329, 3330,
                  3332, 3333, 3335, 3339, 3340, 3342, 3343, 3345, 3346, 3348,
                  3349, 3353, 3355, 3356, 3358, 3359, 3361, 3362, 3364, 3365,
                  3367, 3368, 3370, 3371, 3373, 3377, 3378, 3380, 3381, 3383,
                  3384, 3386, 3387, 3390, 3393, 3394, 3396, 3397, 3399, 3400,
                  3402, 3403, 3405, 3406, 3408, 3409, 3411, 3415, 3416, 3418,
                  3419, 3421, 3422, 3424, 3425, 3429, 3431, 3432, 3434, 3435,
                  3437, 3438, 3440, 3441, 3443, 3444, 3446-3449, 3455, 3456,
                  3458, 3459, 3461, 3462, 3466-3468, 3470, 3472, 3473, 3475,
                  3476, 3478, 3479, 3481, 3482, 3484, 3485, 3487, 3488, 3490,
                  3494, 3495, 3497, 3498, 3500, 3501, 3503, 3504, 3507, 3510,
                  3511, 3513, 3514, 3516, 3517, 3519, 3520, 3523, 3524, 3526,
                  3530, 3531, 3533, 3534, 3536, 3537, 3539, 3540, 3543-3545,
                  3549, 3550, 3552, 3553, 3555, 3556, 3558, 3559, 3561, 3562,
                  3564, 3565, 3567, 3570, 3571, 3573, 3574, 3576, 3577, 3579,
                  3580, 3583, 3586, 3587, 3589, 3590, 3592, 3593, 3595, 3596,
                  3598, 3599, 3601, 3602, 3605, 3608, 3609, 3611, 3612, 3614,
                  3615, 3617, 3618, 3622, 3624, 3625, 3627, 3628, 3630, 3631,
                  3633, 3634, 3636, 3637, 3639, 3640, 3642, 3646, 3647, 3649,
                  3650, 3652, 3653, 3655, 3656, 3659, 3662, 3663, 3665, 3666,
                  3668, 3669, 3671, 3672, 3674, 3675, 3677, 3678, 3680, 3684,
                  3685, 3687, 3688, 3690, 3691, 3693, 3694, 3698, 3700, 3701,
                  3703, 3704, 3706, 3707, 3709, 3710, 3712, 3713, 3715, 3716,
                  3718, 3722, 3723, 3725, 3726, 3728, 3729, 3731, 3732, 3735,
                  3738, 3739, 3741, 3742, 3744, 3745, 3747, 3748, 3750, 3751,
                  3753, 3754, 3756, 3760, 3761, 3763, 3764, 3766, 3767, 3769,
                  3770, 3774, 3776, 3777, 3779, 3780, 3782, 3783, 3785, 3786,
                  3788, 3789, 3791-3794
    3    7 N      13, 36, 55, 72, 91, 113, 131, 150, 169, 188, 207, 226, 245,
                  264, 283, 302, 321, 340, 358, 381, 400, 417, 436, 458, 476,
                  495, 514, 533, 552, 571, 590, 609, 628, 647, 666, 685, 703,
                  726, 745, 762, 781, 803, 821, 840, 859, 878, 897, 916, 935,
                  954, 973, 992, 1011, 1030, 1048, 1071, 1090, 1107, 1126,
                  1148, 1166, 1185, 1204, 1223, 1242, 1261, 1280, 1299, 1318,
                  1337, 1356, 1375, 1393, 1416, 1435, 1452, 1471, 1493, 1511,
                  1530, 1549, 1568, 1587, 1606, 1625, 1644, 1663, 1682, 1701,
                  1720, 1738, 1761, 1780, 1797, 1816, 1838, 1856, 1875, 1894,
                  1913, 1932, 1951, 1970, 1989, 2008, 2027, 2046, 2065, 2083,
                  2106, 2125, 2142, 2161, 2183, 2201, 2220, 2239, 2258, 2277,
                  2296, 2315, 2334, 2353, 2372, 2391, 2410, 2428, 2451, 2470,
                  2487, 2506, 2528, 2546, 2565, 2584, 2603, 2622, 2641, 2660,
                  2679, 2698, 2717, 2736, 2755, 2773, 2796, 2815, 2832, 2851,
                  2873, 2891, 2910, 2929, 2948, 2967, 2986, 3005, 3024, 3043,
                  3062, 3081, 3100, 3118, 3141, 3160, 3177, 3196, 3218, 3236,
                  3255, 3274, 3293, 3312, 3331, 3350, 3369, 3388, 3407, 3426,
                  3445, 3463, 3486, 3505, 3522, 3541, 3563, 3581, 3600, 3619,
                  3638, 3657, 3676, 3695, 3714, 3733, 3752, 3771, 3790
    4    8 O      14, 15, 41, 58, 77, 96, 97, 134, 153, 170, 193, 210, 231,
                  246, 269, 286, 307, 322, 345, 359, 360, 386, 403, 422, 441,
                  442, 479, 498, 515, 538, 555, 576, 591, 614, 631, 652, 667,
                  690, 704, 705, 731, 748, 767, 786, 787, 824, 843, 860, 883,
                  900, 921, 936, 959, 976, 997, 1012, 1035, 1049, 1050, 1076,
                  1093, 1112, 1131, 1132, 1169, 1188, 1205, 1228, 1245, 1266,
                  1281, 1304, 1321, 1342, 1357, 1380, 1394, 1395, 1421, 1438,
                  1457, 1476, 1477, 1514, 1533, 1550, 1573, 1590, 1611, 1626,
                  1649, 1666, 1687, 1702, 1725, 1739, 1740, 1766, 1783, 1802,
                  1821, 1822, 1859, 1878, 1895, 1918, 1935, 1956, 1971, 1994,
                  2011, 2032, 2047, 2070, 2084, 2085, 2111, 2128, 2147, 2166,
                  2167, 2204, 2223, 2240, 2263, 2280, 2301, 2316, 2339, 2356,
                  2377, 2392, 2415, 2429, 2430, 2456, 2473, 2492, 2511, 2512,
                  2549, 2568, 2585, 2608, 2625, 2646, 2661, 2684, 2701, 2722,
                  2737, 2760, 2774, 2775, 2801, 2818, 2837, 2856, 2857, 2894,
                  2913, 2930, 2953, 2970, 2991, 3006, 3029, 3046, 3067, 3082,
                  3105, 3119, 3120, 3146, 3163, 3182, 3201, 3202, 3239, 3258,
                  3275, 3298, 3315, 3336, 3351, 3374, 3391, 3412, 3427, 3450,
                  3464, 3465, 3491, 3508, 3527, 3546, 3547, 3584, 3603, 3620,
                  3643, 3660, 3681, 3696, 3719, 3736, 3757, 3772, 3795

molecular fragmentation (1/2 indicates fragments):
111111111111111111111111111111111111111111111111111111111111111111111111
111111111111111111111111111111111111111111111111111111111111111111111111
111111111111111111111111111111111111111111111111111111111111111111111111
111111111111111111111111111111111111111111111111111111111111111111111111
111111111111111111111111111111111111111111111111111111111222222222222222
222222222222222222222222222222222222222222222222222222222222222222222222
222222222222222222222222222222222222222222222222222222222222222222222222
222222222222222222222222222222222222222222222222222222222222222222222222
222222222222222222222222222222222222222222222222222222222222222222222222
222222222222222222222222222222222222222222222222222222222222222222222222
222222222222222222222222222222222222222222222222222222222222222222222222
222222222222222222222222222222222222222222222222222222222222222222222222
222222222222222222222222222222222222222222222222222222222222222222222222
222222222222222222222222222222222222222222222222222222222222222222222222
222222222222222222222222222222222222222222222222222222222222222222222222
222222222222222222222222222222222222222222222222222222222222222222222222
222222222222222222222222222222222222222222222222222222222222222222222222
222222222222222222222222222222222222222222222222222222222222222222222222
222222222222222222222222222222222222222222222222222222222222222222222222
222222222222222222222222222222222222222222222222222222222222222222222222
222222222222222222222222222222222222222222222222222222222222222222222222
222222222222222222222222222222222222222222222222222222222222222222222222
222222222222222222222222222222222222222222222222222222222222222222222222
222222222222222222222222222222222222222222222222222222222222222222222222
222222222222222222222222222222222222222222222222222222222222222222222222
222222222222222222222222222222222222222222222222222222222222222222222222
222222222222222222222222222222222222222222222222222222222222222222222222
222222222222222222222222222222222222222222222222222222222222222222222222
222222222222222222222222222222222222222222222222222222222222222222222222
222222222222222222222222222222222222222222222222222222222222222222222222
222222222222222222222222222222222222222222222222222222222222222222222222
222222222222222222222222222222222222222222222222222222222222222222222222
222222222222222222222222222222222222222222222222222222222222222222222222
222222222222222222222222222222222222222222222222222222222222222222222222
222222222222222222222222222222222222222222222222222222222222222222222222
222222222222222222222222222222222222222222222222222222222222222222222222
222222222222222222222222222222222222222222222222222222222222222222222222
222222222222222222222222222222222222222222222222222222222222222222222222
222222222222222222222222222222222222222222222222222222222222222222222222
222222222222222222222222222222222222222222222222222222222222222222222222
222222222222222222222222222222222222222222222222222222222222222222222222
222222222222222222222222222222222222222222222222222222222222222222222222
222222222222222222222222222222222222222222222222222222222222222222222222
222222222222222222222222222222222222222222222222222222222222222222222222
222222222222222222222222222222222222222222222222222222222222222222222222
222222222222222222222222222222222222222222222222222222222222222222222222
222222222222222222222222222222222222222222222222222222222222222222222222
222222222222222222222222222222222222222222222222222222222222222222222222
222222222222222222222222222222222222222222222222222222222222222222222222
222222222222222222222222222222222222222222222222222222222222222222222222
222222222222222222222222222222222222222222222222222222222222222222222222
222222222222222222222222222222222222222222222222222222222222222222222222
222222222222222222222222222222222222222222222222222
# atoms in fragment 1/2:   345  3450
 fragment masses (1/2) :     2054.86    20548.57
CMA distance (Bohr)    :  13.054
constraining FC (au)   :  0.0500

           -------------------------------------------------
          |                 G F N 2 - x T B                 |
           -------------------------------------------------

        Reference                      10.1021/acs.jctc.8b01176
      * Hamiltonian:
        H0-scaling (s, p, d)           1.850000    2.230000    2.230000
        zeta-weighting                 0.500000
      * Dispersion:
        s8                             2.700000
        a1                             0.520000
        a2                             5.000000
        s9                             5.000000
      * Repulsion:
        kExp                           1.500000    1.000000
        rExp                           1.000000
      * Coulomb:
        alpha                          2.000000
        third order                    shell-resolved
        anisotropic                    true
        a3                             3.000000
        a5                             4.000000
        cn-shift                       1.200000
        cn-exp                         4.000000
        max-rad                        5.000000


          ...................................................
          :                      SETUP                      :
          :.................................................:
          :  # basis functions                8580          :
          :  # atomic orbitals                8580          :
          :  # shells                         5390          :
          :  # electrons                      9196          :
          :  max. iterations                   250          :
          :  Hamiltonian                  GFN2-xTB          :
          :  restarted?                      false          :
          :  GBSA solvation                  false          :
          :  PC potential                    false          :
          :  electronic temp.          300.0000000     K    :
          :  accuracy                    1.0000000          :
          :  -> integral cutoff          0.2500000E+02      :
          :  -> integral neglect         0.1000000E-07      :
          :  -> SCF convergence          0.1000000E-05 Eh   :
          :  -> wf. convergence          0.1000000E-03 e    :
          :  Broyden damping             0.4000000          :
          ...................................................

 iter      E             dE          RMSdq      gap      omega  full diag
   1  -5156.2137747 -0.515621E+04  0.343E+00    4.35       0.0  T
   2  -5167.3718256 -0.111581E+02  0.186E+00    2.92       1.0  T
   3  -5167.7276913 -0.355866E+00  0.954E-01    2.97       1.0  T
   4  -5167.8062802 -0.785889E-01  0.152E-01    2.37       1.0  T
   5  -5167.8382020 -0.319218E-01  0.781E-02    2.47       1.0  T
   6  -5167.8422796 -0.407760E-02  0.348E-02    2.49       1.0  T
   7  -5167.8424782 -0.198600E-03  0.947E-03    2.50       1.0  T
   8  -5167.8425217 -0.434721E-04  0.376E-03    2.50       1.0  T
   9  -5167.8425284 -0.670508E-05  0.134E-03    2.49       1.2  T
  10  -5167.8425293 -0.972940E-06  0.454E-04    2.49       3.6  T
  11  -5167.8425295 -0.167185E-06  0.139E-04    2.49      11.7  T

   *** convergence criteria satisfied after 11 iterations ***

         #    Occupation            Energy/Eh            Energy/eV
      -------------------------------------------------------------
         1        2.0000           -0.7509279             -20.4338
       ...           ...                  ...                  ...
      4592        2.0000           -0.3521655              -9.5829
      4593        2.0000           -0.3513634              -9.5611
      4594        2.0000           -0.3502479              -9.5307
      4595        2.0000           -0.3466637              -9.4332
      4596        2.0000           -0.3422004              -9.3117
      4597        2.0000           -0.3403432              -9.2612
      4598        2.0000           -0.3400222              -9.2525 (HOMO)
      4599                         -0.2483775              -6.7587 (LUMO)
      4600                         -0.2472881              -6.7291
      4601                         -0.2438889              -6.6366
      4602                         -0.2420360              -6.5861
      4603                         -0.2391712              -6.5082
       ...                                ...                  ...
      8580                          0.6661163              18.1259
      -------------------------------------------------------------
                  HL-Gap            0.0916447 Eh            2.4938 eV
             Fermi-level           -0.2941999 Eh           -8.0056 eV

 SCC (total)                   0 d,  0 h, 33 min, 44.225 sec
 SCC setup                      ...        0 min,  0.728 sec (  0.036%)
 Dispersion                     ...        0 min,  5.277 sec (  0.261%)
 classical contributions        ...        0 min,  0.237 sec (  0.012%)
 integral evaluation            ...        0 min, 10.138 sec (  0.501%)
 iterations                     ...       27 min, 46.825 sec ( 82.344%)
 molecular gradient             ...        5 min, 22.169 sec ( 15.916%)
 printout                       ...        0 min, 18.851 sec (  0.931%)

         :::::::::::::::::::::::::::::::::::::::::::::::::::::
         ::                     SUMMARY                     ::
         :::::::::::::::::::::::::::::::::::::::::::::::::::::
         :: total energy           -5103.001281784038 Eh    ::
         :: gradient norm              0.161619648439 Eh/a0 ::
         :: HOMO-LUMO gap              2.493780566792 eV    ::
         ::.................................................::
         :: SCC energy             -5167.842529513741 Eh    ::
         :: -> isotropic ES            8.512414625587 Eh    ::
         :: -> anisotropic ES         -0.009974154940 Eh    ::
         :: -> anisotropic XC          1.877938057773 Eh    ::
         :: -> dispersion             -5.302279167749 Eh    ::
         :: repulsion energy          63.959423926259 Eh    ::
         :: add. restraining           0.000000000000 Eh    ::
         :: total charge              -0.000000000017 e     ::
         :::::::::::::::::::::::::::::::::::::::::::::::::::::

      ----------------------------------------------------------- 
     |              Fast Inertial Relaxation Engine              |
      ----------------------------------------------------------- 

          ...................................................
          :                      SETUP                      :
          :.................................................:
          :   energy convergence        0.5000000E-05 Eh    :
          :   grad. convergence         0.1000000E-02 Eh/a0 :
          :   optimization log               true           :
          :   writing optlog all                1     steps :
          :   Hessian reset                    20     steps :
          :   time step scaling                 5     steps :
          :   maximium step len.        1.0000000     a0    :
          :   initial time step         0.2500000     fs    :
          :   maximum time step         1.2500000     fs    :
          :   power reset thr           0.0000000     au    :
          :   alpha parameter           0.1000000           :
          :   BFGS update                   false           :
          :   preconditioning               false           :
          ...................................................

........................................................................
.............................. CYCLE    1 ..............................
........................................................................

 iter      E             dE          RMSdq      gap      omega  full diag
   1  -5167.8621100 -0.516786E+04  0.550E-03    2.49       0.0  T
   2  -5167.8622107 -0.100721E-03  0.245E-03    2.50       1.0  T
   3  -5167.8622161 -0.538271E-05  0.116E-03    2.50       1.4  T
   4  -5167.8622162 -0.113993E-06  0.427E-04    2.51       3.8  T
   5  -5167.8622163 -0.919672E-07  0.139E-04    2.51      11.7  T
     SCC iter.                  ...       12 min, 36.220 sec
     gradient                   ...        5 min, 24.194 sec
 * total energy  : -5103.0041103 Eh     change    :  -0.2828507E-02 Eh
   gradient norm :     0.1370705 Eh/a0  converged?    E=F G=F D=F
   time step     :     0.2500000 fs     power     :   0.1376934E-06
   step length   :     0.0189415 a0     speed     :   0.1832690E-02

........................................................................
.............................. CYCLE    2 ..............................
........................................................................

 iter      E             dE          RMSdq      gap      omega  full diag
   1  -5167.8894528 -0.516789E+04  0.781E-03    2.50       0.0  T
   2  -5167.8896558 -0.203035E-03  0.349E-03    2.52       1.0  T
   3  -5167.8896666 -0.107831E-04  0.166E-03    2.52       1.0  T
   4  -5167.8896668 -0.227716E-06  0.607E-04    2.52       2.7  T
   5  -5167.8896670 -0.187185E-06  0.197E-04    2.52       8.2  T
     SCC iter.                  ...       12 min, 37.782 sec
     gradient                   ...        5 min, 22.165 sec
 * total energy  : -5103.0073342 Eh     change    :  -0.3223901E-02 Eh
   gradient norm :     0.1026302 Eh/a0  converged?    E=F G=F D=F
   time step     :     0.2500000 fs     power     :   0.1459140E-06
   step length   :     0.0269685 a0     speed     :   0.2609344E-02

........................................................................
.............................. CYCLE    3 ..............................
........................................................................

 iter      E             dE          RMSdq      gap      omega  full diag
   1  -5167.9215260 -0.516792E+04  0.947E-03    2.52       0.0  T
   2  -5167.9218239 -0.297861E-03  0.423E-03    2.54       1.0  T
   3  -5167.9218396 -0.157672E-04  0.202E-03    2.54       1.0  T
   4  -5167.9218400 -0.331474E-06  0.739E-04    2.54       2.2  T
   5  -5167.9218402 -0.281596E-06  0.240E-04    2.54       6.8  T
     SCC iter.                  ...       12 min, 36.629 sec
     gradient                   ...        5 min, 23.460 sec
 * total energy  : -5103.0100045 Eh     change    :  -0.2670318E-02 Eh
   gradient norm :     0.0629902 Eh/a0  converged?    E=F G=F D=F
   time step     :     0.2500000 fs     power     :   0.1043865E-06
   step length   :     0.0329391 a0     speed     :   0.3187032E-02

........................................................................
.............................. CYCLE    4 ..............................
........................................................................

 iter      E             dE          RMSdq      gap      omega  full diag
   1  -5167.9540867 -0.516795E+04  0.103E-02    2.54       0.0  T
   2  -5167.9544341 -0.347320E-03  0.458E-03    2.56       1.0  T
   3  -5167.9544524 -0.183310E-04  0.219E-03    2.56       1.0  T
   4  -5167.9544528 -0.384263E-06  0.802E-04    2.56       2.0  T
   5  -5167.9544531 -0.340060E-06  0.262E-04    2.56       6.2  T
     SCC iter.                  ...       12 min, 37.425 sec
     gradient                   ...        5 min, 23.227 sec
 * total energy  : -5103.0113877 Eh     change    :  -0.1383191E-02 Eh
   gradient norm :     0.0343482 Eh/a0  converged?    E=F G=F D=F
   time step     :     0.2500000 fs     power     :   0.2915510E-07
   step length   :     0.0363343 a0     speed     :   0.3515538E-02

........................................................................
.............................. CYCLE    5 ..............................
........................................................................

 iter      E             dE          RMSdq      gap      omega  full diag
   1  -5167.9794444 -0.516798E+04  0.946E-03    2.56       0.0  T
   2  -5167.9797337 -0.289334E-03  0.424E-03    2.58       1.0  T
   3  -5167.9797489 -0.152278E-04  0.206E-03    2.58       1.0  T
   4  -5167.9797492 -0.321675E-06  0.734E-04    2.58       2.2  T
   5  -5167.9797495 -0.302346E-06  0.242E-04    2.58       6.7  T
     SCC iter.                  ...       12 min, 37.032 sec
     gradient                   ...        5 min, 23.269 sec
 * total energy  : -5103.0113595 Eh     change    :   0.2823172E-04 Eh
   gradient norm :     0.0506612 Eh/a0  converged?    E=F G=F D=F
   time step     :     0.2500000 fs     power     :  -0.3986951E-07
   step length   :     0.0355493 a0     speed     :   0.3439585E-02

........................................................................
.............................. CYCLE    6 ..............................
........................................................................
 * reset velocities

 iter      E             dE          RMSdq      gap      omega  full diag
   1  -5167.9786708 -0.516798E+04  0.199E-04    2.58       0.0  T
   2  -5167.9786709 -0.119863E-06  0.859E-05    2.58      18.9  T
   3  -5167.9786709 -0.716955E-08  0.408E-05    2.58      39.8  T
     SCC iter.                  ...        7 min, 33.584 sec
     gradient                   ...        5 min, 22.496 sec
 * total energy  : -5103.0113968 Eh     change    :  -0.3730270E-04 Eh
   gradient norm :     0.0498121 Eh/a0  converged?    E=F G=F D=T
   time step     :     0.1250000 fs     power     :   0.3924323E-08
   step length   :     0.0007422 a0     speed     :   0.1436184E-03

........................................................................
.............................. CYCLE    7 ..............................
........................................................................

 iter      E             dE          RMSdq      gap      omega  full diag
   1  -5167.9765340 -0.516798E+04  0.370E-04    2.58       0.0  T
   2  -5167.9765344 -0.459355E-06  0.177E-04    2.58       9.2  T
   3  -5167.9765345 -0.246146E-07  0.896E-05    2.58      18.1  T
     SCC iter.                  ...        7 min, 34.489 sec
     gradient                   ...        5 min, 21.633 sec
 * total energy  : -5103.0114689 Eh     change    :  -0.7210427E-04 Eh
   gradient norm :     0.0482339 Eh/a0  converged?    E=F G=F D=F
   time step     :     0.1250000 fs     power     :   0.7534544E-08
   step length   :     0.0014719 a0     speed     :   0.2848266E-03

........................................................................
.............................. CYCLE    8 ..............................
........................................................................

 iter      E             dE          RMSdq      gap      omega  full diag
   1  -5167.9733798 -0.516797E+04  0.541E-04    2.58       0.0  T
   2  -5167.9733808 -0.986325E-06  0.263E-04    2.58       6.2  T
   3  -5167.9733809 -0.526543E-07  0.134E-04    2.58      12.1  T
     SCC iter.                  ...        7 min, 36.000 sec
     gradient                   ...        5 min, 22.700 sec
 * total energy  : -5103.0115714 Eh     change    :  -0.1025642E-03 Eh
   gradient norm :     0.0459453 Eh/a0  converged?    E=F G=F D=F
   time step     :     0.1250000 fs     power     :   0.1061454E-07
   step length   :     0.0021784 a0     speed     :   0.4215372E-03

........................................................................
.............................. CYCLE    9 ..............................
........................................................................

 iter      E             dE          RMSdq      gap      omega  full diag
   1  -5167.9692693 -0.516797E+04  0.702E-04    2.58       0.0  T
   2  -5167.9692709 -0.165335E-05  0.342E-04    2.58       4.7  T
   3  -5167.9692710 -0.878135E-07  0.176E-04    2.58       9.2  T
   4  -5167.9692710 -0.159071E-08  0.548E-05    2.58      29.6  T
     SCC iter.                  ...       10 min,  5.196 sec
     gradient                   ...        5 min, 30.325 sec
 * total energy  : -5103.0116981 Eh     change    :  -0.1266119E-03 Eh
   gradient norm :     0.0430270 Eh/a0  converged?    E=F G=F D=F
   time step     :     0.1250000 fs     power     :   0.1298651E-07
   step length   :     0.0028509 a0     speed     :   0.5516732E-03

........................................................................
.............................. CYCLE   10 ..............................
........................................................................

 iter      E             dE          RMSdq      gap      omega  full diag
   1  -5167.9642844 -0.516796E+04  0.854E-04    2.58       0.0  T
   2  -5167.9642868 -0.244569E-05  0.399E-04    2.58       4.1  T
   3  -5167.9642869 -0.135503E-06  0.198E-04    2.58       8.2  T
   4  -5167.9642869 -0.211094E-08  0.677E-05    2.58      24.0  T
     SCC iter.                  ...       10 min,  8.236 sec
     gradient                   ...        5 min, 24.922 sec
 * total energy  : -5103.0118414 Eh     change    :  -0.1433000E-03 Eh
   gradient norm :     0.0396482 Eh/a0  converged?    E=F G=F D=F
   time step     :     0.1250000 fs     power     :   0.1454960E-07
   step length   :     0.0034794 a0     speed     :   0.6732981E-03

........................................................................
.............................. CYCLE   11 ..............................
........................................................................

 iter      E             dE          RMSdq      gap      omega  full diag
   1  -5167.9585286 -0.516796E+04  0.979E-04    2.58       0.0  T
   2  -5167.9585318 -0.319513E-05  0.459E-04    2.58       3.5  T
   3  -5167.9585320 -0.176939E-06  0.229E-04    2.58       7.1  T
   4  -5167.9585320 -0.270938E-08  0.772E-05    2.58      21.0  T
     SCC iter.                  ...       10 min,  5.200 sec
     gradient                   ...        5 min, 21.204 sec
 * total energy  : -5103.0119934 Eh     change    :  -0.1520479E-03 Eh
   gradient norm :     0.0359812 Eh/a0  converged?    E=F G=F D=F
   time step     :     0.1250000 fs     power     :   0.1526998E-07
   step length   :     0.0040556 a0     speed     :   0.7847985E-03

........................................................................
.............................. CYCLE   12 ..............................
........................................................................

 iter      E             dE          RMSdq      gap      omega  full diag
   1  -5167.9514123 -0.516795E+04  0.120E-03    2.58       0.0  T
   2  -5167.9514170 -0.475203E-05  0.562E-04    2.57       2.9  T
   3  -5167.9514173 -0.262825E-06  0.281E-04    2.57       5.8  T
   4  -5167.9514173 -0.401906E-08  0.936E-05    2.57      17.3  T
     SCC iter.                  ...       10 min,  3.887 sec
     gradient                   ...        5 min, 25.341 sec
 * total energy  : -5103.0121626 Eh     change    :  -0.1691865E-03 Eh
   gradient norm :     0.0318876 Eh/a0  converged?    E=F G=F D=F
   time step     :     0.1375000 fs     power     :   0.1514508E-07
   step length   :     0.0050868 a0     speed     :   0.8948583E-03

........................................................................
.............................. CYCLE   13 ..............................
........................................................................

 iter      E             dE          RMSdq      gap      omega  full diag
   1  -5167.9428720 -0.516794E+04  0.142E-03    2.57       0.0  T
   2  -5167.9428786 -0.657847E-05  0.667E-04    2.57       2.4  T
   3  -5167.9428790 -0.363468E-06  0.336E-04    2.57       4.8  T
   4  -5167.9428790 -0.573709E-08  0.109E-04    2.57      14.8  T
     SCC iter.                  ...       10 min,  8.082 sec
     gradient                   ...        5 min, 22.869 sec
 * total energy  : -5103.0123405 Eh     change    :  -0.1778833E-03 Eh
   gradient norm :     0.0278225 Eh/a0  converged?    E=F G=F D=F
   time step     :     0.1512500 fs     power     :   0.1409929E-07
   step length   :     0.0062470 a0     speed     :   0.9990619E-03

........................................................................
.............................. CYCLE   14 ..............................
........................................................................

 iter      E             dE          RMSdq      gap      omega  full diag
   1  -5167.9329964 -0.516793E+04  0.161E-03    2.57       0.0  T
   2  -5167.9330047 -0.829095E-05  0.759E-04    2.57       2.1  T
   3  -5167.9330051 -0.457553E-06  0.387E-04    2.57       4.2  T
   4  -5167.9330051 -0.697037E-08  0.122E-04    2.57      13.4  T
     SCC iter.                  ...       10 min,  8.540 sec
     gradient                   ...        5 min, 22.650 sec
 * total energy  : -5103.0125167 Eh     change    :  -0.1762097E-03 Eh
   gradient norm :     0.0246653 Eh/a0  converged?    E=F G=F D=F
   time step     :     0.1663750 fs     power     :   0.1228830E-07
   step length   :     0.0075075 a0     speed     :   0.1091489E-02

........................................................................
.............................. CYCLE   15 ..............................
........................................................................

 iter      E             dE          RMSdq      gap      omega  full diag
   1  -5167.9221507 -0.516792E+04  0.172E-03    2.57       0.0  T
   2  -5167.9221598 -0.911739E-05  0.819E-04    2.57       2.0  T
   3  -5167.9221603 -0.501865E-06  0.424E-04    2.57       3.8  T
   4  -5167.9221603 -0.763976E-08  0.125E-04    2.57      12.9  T
     SCC iter.                  ...       10 min,  7.675 sec
     gradient                   ...        5 min, 23.705 sec
 * total energy  : -5103.0126833 Eh     change    :  -0.1666502E-03 Eh
   gradient norm :     0.0235144 Eh/a0  converged?    E=F G=F D=F
   time step     :     0.1830125 fs     power     :   0.1023355E-07
   step length   :     0.0088116 a0     speed     :   0.1164627E-02

........................................................................
.............................. CYCLE   16 ..............................
........................................................................

 iter      E             dE          RMSdq      gap      omega  full diag
   1  -5167.9110737 -0.516791E+04  0.170E-03    2.57       0.0  T
   2  -5167.9110819 -0.818099E-05  0.822E-04    2.57       2.0  T
   3  -5167.9110824 -0.448827E-06  0.440E-04    2.57       3.7  T
   4  -5167.9110824 -0.714408E-08  0.116E-04    2.57      14.0  T
     SCC iter.                  ...       10 min,  7.565 sec
     gradient                   ...        5 min, 22.737 sec
 * total energy  : -5103.0128417 Eh     change    :  -0.1584168E-03 Eh
   gradient norm :     0.0246322 Eh/a0  converged?    E=F G=F D=F
   time step     :     0.2013138 fs     power     :   0.8786410E-08
   step length   :     0.0100933 a0     speed     :   0.1212758E-02

........................................................................
.............................. CYCLE   17 ..............................
........................................................................

 iter      E             dE          RMSdq      gap      omega  full diag
   1  -5167.9007801 -0.516790E+04  0.154E-03    2.57       0.0  T
   2  -5167.9007856 -0.542801E-05  0.769E-04    2.57       2.1  T
   3  -5167.9007859 -0.296302E-06  0.429E-04    2.57       3.8  T
   4  -5167.9007859 -0.737418E-08  0.938E-05    2.57      17.3  T
     SCC iter.                  ...       10 min,  4.789 sec
     gradient                   ...        5 min, 22.924 sec
 * total energy  : -5103.0130078 Eh     change    :  -0.1660129E-03 Eh
   gradient norm :     0.0267733 Eh/a0  converged?    E=F G=F D=F
   time step     :     0.2214451 fs     power     :   0.8701191E-08
   step length   :     0.0113711 a0     speed     :   0.1242088E-02

........................................................................
.............................. CYCLE   18 ..............................
........................................................................

 iter      E             dE          RMSdq      gap      omega  full diag
   1  -5167.8923525 -0.516789E+04  0.130E-03    2.57       0.0  T
   2  -5167.8923546 -0.211965E-05  0.701E-04    2.57       2.3  T
   3  -5167.8923548 -0.113650E-06  0.384E-04    2.57       4.2  T
   4  -5167.8923548 -0.139653E-07  0.678E-05    2.57      23.9  T
     SCC iter.                  ...       10 min,  6.249 sec
     gradient                   ...        5 min, 22.536 sec
 * total energy  : -5103.0132090 Eh     change    :  -0.2012297E-03 Eh
   gradient norm :     0.0281408 Eh/a0  converged?    E=F G=F D=F
   time step     :     0.2435896 fs     power     :   0.1009220E-07
   step length   :     0.0128189 a0     speed     :   0.1272934E-02

........................................................................
.............................. CYCLE   19 ..............................
........................................................................

 iter      E             dE          RMSdq      gap      omega  full diag
   1  -5167.8868025 -0.516789E+04  0.123E-03    2.57       0.0  T
   2  -5167.8868029 -0.452170E-06  0.716E-04    2.57       2.3  T
   3  -5167.8868030 -0.286618E-07  0.204E-04    2.57       7.9  T
     SCC iter.                  ...        7 min, 34.821 sec
     gradient                   ...        5 min, 24.270 sec
 * total energy  : -5103.0134695 Eh     change    :  -0.2604656E-03 Eh
   gradient norm :     0.0273067 Eh/a0  converged?    E=F G=F D=F
   time step     :     0.2679486 fs     power     :   0.1221645E-07
   step length   :     0.0146945 a0     speed     :   0.1326537E-02

........................................................................
.............................. CYCLE   20 ..............................
........................................................................

 iter      E             dE          RMSdq      gap      omega  full diag
   1  -5167.8849217 -0.516788E+04  0.159E-03    2.57       0.0  T
   2  -5167.8849245 -0.278004E-05  0.902E-04    2.57       1.8  T
   3  -5167.8849247 -0.173380E-06  0.472E-04    2.57       3.4  T
   4  -5167.8849247 -0.290711E-07  0.916E-05    2.57      17.7  T
     SCC iter.                  ...       10 min,  7.719 sec
     gradient                   ...        5 min, 21.924 sec
 * total energy  : -5103.0137948 Eh     change    :  -0.3252983E-03 Eh
   gradient norm :     0.0236515 Eh/a0  converged?    E=F G=F D=F
   time step     :     0.2947435 fs     power     :   0.1361354E-07
   step length   :     0.0172082 a0     speed     :   0.1412229E-02
 * RMSD in coord.:     0.0028417 a0     energy gain  -0.1251297E-01 Eh

........................................................................
.............................. CYCLE   21 ..............................
........................................................................

 iter      E             dE          RMSdq      gap      omega  full diag
   1  -5167.8862630 -0.516789E+04  0.166E-03    2.57       0.0  T
   2  -5167.8862684 -0.545641E-05  0.886E-04    2.57       1.8  T
   3  -5167.8862688 -0.336757E-06  0.493E-04    2.58       3.3  T
   4  -5167.8862688 -0.127957E-07  0.109E-04    2.58      14.9  T
     SCC iter.                  ...       10 min,  6.441 sec
     gradient                   ...        5 min, 24.246 sec
 * total energy  : -5103.0140694 Eh     change    :  -0.2746942E-03 Eh
   gradient norm :     0.0193818 Eh/a0  converged?    E=F G=F D=F
   time step     :     0.2500000 fs     power     :   0.1330999E-07
   step length   :     0.0153689 a0     speed     :   0.1487023E-02

........................................................................
.............................. CYCLE   22 ..............................
........................................................................

 iter      E             dE          RMSdq      gap      omega  full diag
   1  -5167.8896593 -0.516789E+04  0.189E-03    2.58       0.0  T
   2  -5167.8896678 -0.843229E-05  0.977E-04    2.58       1.7  T
   3  -5167.8896683 -0.500991E-06  0.537E-04    2.58       3.0  T
   4  -5167.8896683 -0.114478E-07  0.129E-04    2.58      12.5  T
     SCC iter.                  ...       10 min,  5.988 sec
     gradient                   ...        5 min, 22.038 sec
 * total energy  : -5103.0143172 Eh     change    :  -0.2477501E-03 Eh
   gradient norm :     0.0159784 Eh/a0  converged?    E=F G=F D=F
   time step     :     0.2500000 fs     power     :   0.1155419E-07
   step length   :     0.0161465 a0     speed     :   0.1562259E-02

........................................................................
.............................. CYCLE   23 ..............................
........................................................................

 iter      E             dE          RMSdq      gap      omega  full diag
   1  -5167.8936963 -0.516789E+04  0.188E-03    2.58       0.0  T
   2  -5167.8937047 -0.843163E-05  0.965E-04    2.58       1.7  T
   3  -5167.8937052 -0.491119E-06  0.530E-04    2.58       3.1  T
   4  -5167.8937052 -0.959153E-08  0.128E-04    2.58      12.7  T
     SCC iter.                  ...       10 min,  5.339 sec
     gradient                   ...        5 min, 22.916 sec
 * total energy  : -5103.0145250 Eh     change    :  -0.2078241E-03 Eh
   gradient norm :     0.0157462 Eh/a0  converged?    E=F G=F D=F
   time step     :     0.2500000 fs     power     :   0.9476100E-08
   step length   :     0.0167403 a0     speed     :   0.1619714E-02

........................................................................
.............................. CYCLE   24 ..............................
........................................................................

 iter      E             dE          RMSdq      gap      omega  full diag
   1  -5167.8966750 -0.516790E+04  0.158E-03    2.59       0.0  T
   2  -5167.8966801 -0.508213E-05  0.830E-04    2.59       2.0  T
   3  -5167.8966804 -0.292141E-06  0.463E-04    2.59       3.5  T
   4  -5167.8966804 -0.731779E-08  0.995E-05    2.59      16.3  T
     SCC iter.                  ...       10 min,  5.457 sec
     gradient                   ...        5 min, 23.296 sec
 * total energy  : -5103.0147063 Eh     change    :  -0.1813246E-03 Eh
   gradient norm :     0.0176994 Eh/a0  converged?    E=F G=F D=F
   time step     :     0.2500000 fs     power     :   0.8532078E-08
   step length   :     0.0169331 a0     speed     :   0.1638372E-02

........................................................................
.............................. CYCLE   25 ..............................
........................................................................

 iter      E             dE          RMSdq      gap      omega  full diag
   1  -5167.8975238 -0.516790E+04  0.118E-03    2.59       0.0  T
   2  -5167.8975254 -0.158163E-05  0.657E-04    2.59       2.5  T
   3  -5167.8975255 -0.855971E-07  0.348E-04    2.59       4.7  T
   4  -5167.8975255 -0.109067E-07  0.621E-05    2.59      26.1  T
     SCC iter.                  ...       10 min,  6.034 sec
     gradient                   ...        5 min, 23.444 sec
 * total energy  : -5103.0148880 Eh     change    :  -0.1816151E-03 Eh
   gradient norm :     0.0190913 Eh/a0  converged?    E=F G=F D=F
   time step     :     0.2500000 fs     power     :   0.9023151E-08
   step length   :     0.0168625 a0     speed     :   0.1631539E-02

........................................................................
.............................. CYCLE   26 ..............................
........................................................................

 iter      E             dE          RMSdq      gap      omega  full diag
   1  -5167.8956810 -0.516790E+04  0.105E-03    2.59       0.0  T
   2  -5167.8956814 -0.363962E-06  0.615E-04    2.59       2.6  T
   3  -5167.8956814 -0.125765E-07  0.189E-04    2.59       8.6  T
     SCC iter.                  ...        7 min, 36.183 sec
     gradient                   ...        5 min, 20.450 sec
 * total energy  : -5103.0151079 Eh     change    :  -0.2198993E-03 Eh
   gradient norm :     0.0185876 Eh/a0  converged?    E=F G=F D=F
   time step     :     0.2750000 fs     power     :   0.1014849E-07
   step length   :     0.0185890 a0     speed     :   0.1635076E-02

........................................................................
.............................. CYCLE   27 ..............................
........................................................................

 iter      E             dE          RMSdq      gap      omega  full diag
   1  -5167.8908008 -0.516789E+04  0.133E-03    2.59       0.0  T
   2  -5167.8908031 -0.230493E-05  0.730E-04    2.59       2.2  T
   3  -5167.8908033 -0.131345E-06  0.396E-04    2.59       4.1  T
   4  -5167.8908033 -0.119053E-07  0.669E-05    2.59      24.3  T
     SCC iter.                  ...       10 min,  7.644 sec
     gradient                   ...        5 min, 25.152 sec
 * total energy  : -5103.0153682 Eh     change    :  -0.2603166E-03 Eh
   gradient norm :     0.0160248 Eh/a0  converged?    E=F G=F D=F
   time step     :     0.3025000 fs     power     :   0.1073462E-07
   step length   :     0.0208253 a0     speed     :   0.1665259E-02

........................................................................
.............................. CYCLE   28 ..............................
........................................................................

 iter      E             dE          RMSdq      gap      omega  full diag
   1  -5167.8834611 -0.516788E+04  0.178E-03    2.59       0.0  T
   2  -5167.8834679 -0.683885E-05  0.914E-04    2.59       1.8  T
   3  -5167.8834683 -0.398919E-06  0.506E-04    2.59       3.2  T
   4  -5167.8834683 -0.683031E-08  0.110E-04    2.59      14.7  T
     SCC iter.                  ...       10 min,  7.238 sec
     gradient                   ...        5 min, 24.708 sec
 * total energy  : -5103.0156467 Eh     change    :  -0.2784824E-03 Eh
   gradient norm :     0.0134735 Eh/a0  converged?    E=F G=F D=F
   time step     :     0.3327500 fs     power     :   0.1002305E-07
   step length   :     0.0236785 a0     speed     :   0.1721281E-02

........................................................................
.............................. CYCLE   29 ..............................
........................................................................

 iter      E             dE          RMSdq      gap      omega  full diag
   1  -5167.8760438 -0.516788E+04  0.198E-03    2.59       0.0  T
   2  -5167.8760522 -0.844768E-05  0.999E-04    2.59       1.6  T
   3  -5167.8760527 -0.485810E-06  0.551E-04    2.59       2.9  T
   4  -5167.8760527 -0.699492E-08  0.123E-04    2.59      13.2  T
     SCC iter.                  ...       10 min,  4.317 sec
     gradient                   ...        5 min, 25.574 sec
 * total energy  : -5103.0159219 Eh     change    :  -0.2752399E-03 Eh
   gradient norm :     0.0143028 Eh/a0  converged?    E=F G=F D=F
   time step     :     0.3660250 fs     power     :   0.8831002E-08
   step length   :     0.0269690 a0     speed     :   0.1782252E-02

........................................................................
.............................. CYCLE   30 ..............................
........................................................................

 iter      E             dE          RMSdq      gap      omega  full diag
   1  -5167.8724116 -0.516787E+04  0.168E-03    2.59       0.0  T
   2  -5167.8724152 -0.357675E-05  0.894E-04    2.59       1.8  T
   3  -5167.8724154 -0.198888E-06  0.485E-04    2.59       3.4  T
   4  -5167.8724154 -0.181772E-07  0.846E-05    2.59      19.2  T
     SCC iter.                  ...       10 min,  7.644 sec
     gradient                   ...        5 min, 25.012 sec
 * total energy  : -5103.0162153 Eh     change    :  -0.2933862E-03 Eh
   gradient norm :     0.0162565 Eh/a0  converged?    E=F G=F D=F
   time step     :     0.4026275 fs     power     :   0.8984107E-08
   step length   :     0.0302406 a0     speed     :   0.1816776E-02

........................................................................
.............................. CYCLE   31 ..............................
........................................................................

 iter      E             dE          RMSdq      gap      omega  full diag
   1  -5167.8754051 -0.516788E+04  0.152E-03    2.59       0.0  T
   2  -5167.8754060 -0.950628E-06  0.882E-04    2.59       1.8  T
   3  -5167.8754061 -0.370828E-07  0.335E-04    2.59       4.8  T
     SCC iter.                  ...        7 min, 37.033 sec
     gradient                   ...        5 min, 22.499 sec
 * total energy  : -5103.0165700 Eh     change    :  -0.3547068E-03 Eh
   gradient norm :     0.0151655 Eh/a0  converged?    E=F G=F D=F
   time step     :     0.4428903 fs     power     :   0.1013169E-07
   step length   :     0.0339021 a0     speed     :   0.1851591E-02

........................................................................
.............................. CYCLE   32 ..............................
........................................................................

 iter      E             dE          RMSdq      gap      omega  full diag
   1  -5167.8856253 -0.516789E+04  0.214E-03    2.60       0.0  T
   2  -5167.8856329 -0.752568E-05  0.117E-03    2.60       1.4  T
   3  -5167.8856333 -0.446919E-06  0.649E-04    2.60       2.5  T
   4  -5167.8856333 -0.197160E-07  0.103E-04    2.60      15.7  T
     SCC iter.                  ...       10 min,  6.409 sec
     gradient                   ...        5 min, 22.605 sec
 * total energy  : -5103.0169750 Eh     change    :  -0.4050094E-03 Eh
   gradient norm :     0.0118969 Eh/a0  converged?    E=F G=F D=F
   time step     :     0.4871793 fs     power     :   0.1003769E-07
   step length   :     0.0386597 a0     speed     :   0.1919485E-02

........................................................................
.............................. CYCLE   33 ..............................
........................................................................

 iter      E             dE          RMSdq      gap      omega  full diag
   1  -5167.8990382 -0.516790E+04  0.250E-03    2.60       0.0  T
   2  -5167.8990488 -0.105840E-04  0.135E-03    2.60       1.2  T
   3  -5167.8990494 -0.608454E-06  0.749E-04    2.60       2.2  T
   4  -5167.8990494 -0.206273E-07  0.130E-04    2.61      12.5  T
     SCC iter.                  ...       10 min,  5.311 sec
     gradient                   ...        5 min, 22.995 sec
 * total energy  : -5103.0173796 Eh     change    :  -0.4046348E-03 Eh
   gradient norm :     0.0130255 Eh/a0  converged?    E=F G=F D=F
   time step     :     0.5358972 fs     power     :   0.8804243E-08
   step length   :     0.0445117 a0     speed     :   0.2009129E-02

........................................................................
.............................. CYCLE   34 ..............................
........................................................................

 iter      E             dE          RMSdq      gap      omega  full diag
   1  -5167.9066471 -0.516791E+04  0.216E-03    2.61       0.0  T
   2  -5167.9066485 -0.136292E-05  0.126E-03    2.61       1.3  T
   3  -5167.9066485 -0.183136E-07  0.412E-04    2.61       3.9  T
   4  -5167.9066486 -0.105420E-06  0.701E-05    2.61      23.2  T
     SCC iter.                  ...       10 min,  7.436 sec
     gradient                   ...        5 min, 24.541 sec
 * total energy  : -5103.0178192 Eh     change    :  -0.4395742E-03 Eh
   gradient norm :     0.0136182 Eh/a0  converged?    E=F G=F D=F
   time step     :     0.5894869 fs     power     :   0.9218525E-08
   step length   :     0.0502966 a0     speed     :   0.2063857E-02

........................................................................
.............................. CYCLE   35 ..............................
........................................................................

 iter      E             dE          RMSdq      gap      omega  full diag
   1  -5167.9039021 -0.516790E+04  0.294E-03    2.61       0.0  T
   2  -5167.9039132 -0.111664E-04  0.159E-03    2.61       1.0  T
   3  -5167.9039139 -0.619289E-06  0.855E-04    2.61       1.9  T
   4  -5167.9039139 -0.531509E-07  0.124E-04    2.61      13.1  T
     SCC iter.                  ...       10 min,  5.680 sec
     gradient                   ...        5 min, 22.080 sec
 * total energy  : -5103.0183183 Eh     change    :  -0.4990547E-03 Eh
   gradient norm :     0.0103831 Eh/a0  converged?    E=F G=F D=F
   time step     :     0.6484356 fs     power     :   0.9130654E-08
   step length   :     0.0571181 a0     speed     :   0.2130699E-02

........................................................................
.............................. CYCLE   36 ..............................
........................................................................

 iter      E             dE          RMSdq      gap      omega  full diag
   1  -5167.8971577 -0.516790E+04  0.340E-03    2.61       0.0  T
   2  -5167.8971741 -0.163997E-04  0.178E-03    2.61       1.0  T
   3  -5167.8971750 -0.861273E-06  0.973E-04    2.61       1.7  T
   4  -5167.8971750 -0.503323E-07  0.161E-04    2.61      10.1  T
     SCC iter.                  ...       10 min,  6.230 sec
     gradient                   ...        5 min, 23.351 sec
 * total energy  : -5103.0188116 Eh     change    :  -0.4933530E-03 Eh
   gradient norm :     0.0127345 Eh/a0  converged?    E=F G=F D=F
   time step     :     0.7132792 fs     power     :   0.7985139E-08
   step length   :     0.0655245 a0     speed     :   0.2222078E-02

........................................................................
.............................. CYCLE   37 ..............................
........................................................................

 iter      E             dE          RMSdq      gap      omega  full diag
   1  -5167.9003642 -0.516790E+04  0.293E-03    2.61       0.0  T
   2  -5167.9003682 -0.396988E-05  0.170E-03    2.61       1.0  T
   3  -5167.9003684 -0.161711E-06  0.687E-04    2.61       2.4  T
   4  -5167.9003685 -0.185830E-06  0.997E-05    2.61      16.3  T
     SCC iter.                  ...       10 min,  7.323 sec
     gradient                   ...        5 min, 24.911 sec
 * total energy  : -5103.0193724 Eh     change    :  -0.5608170E-03 Eh
   gradient norm :     0.0108038 Eh/a0  converged?    E=F G=F D=F
   time step     :     0.7846071 fs     power     :   0.8718104E-08
   step length   :     0.0736812 a0     speed     :   0.2271536E-02

........................................................................
.............................. CYCLE   38 ..............................
........................................................................

 iter      E             dE          RMSdq      gap      omega  full diag
   1  -5167.9099790 -0.516791E+04  0.383E-03    2.61       0.0  T
   2  -5167.9099983 -0.192637E-04  0.210E-03    2.62       1.0  T
   3  -5167.9099994 -0.107853E-05  0.114E-03    2.62       1.4  T
   4  -5167.9099994 -0.811642E-07  0.186E-04    2.62       8.7  T
   5  -5167.9099995 -0.527525E-07  0.786E-05    2.62      20.7  T
     SCC iter.                  ...       12 min, 38.699 sec
     gradient                   ...        5 min, 25.140 sec
 * total energy  : -5103.0199548 Eh     change    :  -0.5823247E-03 Eh
   gradient norm :     0.0120916 Eh/a0  converged?    E=F G=F D=F
   time step     :     0.8630678 fs     power     :   0.7503664E-08
   step length   :     0.0841554 a0     speed     :   0.2358587E-02

........................................................................
.............................. CYCLE   39 ..............................
........................................................................

 iter      E             dE          RMSdq      gap      omega  full diag
[...]
  3538   6 C     3541   7 N                                       1.3469439
  3541   7 N     3542   6 C                                       1.4449002
  3541   7 N     3543   1 H                                       1.0117549
  3518   6 C     3544   1 H                                       1.0914168
  3518   6 C     3545   1 H                                       1.0908723
  3525   6 C     3546   8 O                                       1.2261811
  3538   6 C     3547   8 O                                       1.2167851
  3542   6 C     3548   6 C                                       1.5293959
  3542   6 C     3549   1 H                                       1.0956483
  3542   6 C     3550   1 H                                       1.0907089
  3548   6 C     3551   6 C                                       1.5279555
  3548   6 C     3552   1 H                                       1.0922723
  3548   6 C     3553   1 H                                       1.0934932
  3551   6 C     3554   6 C                                       1.5284942
  3551   6 C     3555   1 H                                       1.0940225
  3551   6 C     3556   1 H                                       1.0919913
  3554   6 C     3557   6 C                                       1.5281754
  3554   6 C     3558   1 H                                       1.0887429
  3554   6 C     3559   1 H                                       1.0924995
  3557   6 C     3560   6 C                                       1.5293355
  3557   6 C     3561   1 H                                       1.0930503
  3557   6 C     3562   1 H                                       1.0906698
  3560   6 C     3563   7 N                                       1.4412384
  3560   6 C     3564   1 H                                       1.0981175
  3560   6 C     3565   1 H                                       1.0942885
  3563   7 N     3566   6 C                                       1.3449521
  3563   7 N     3567   1 H                                       1.0150018
  3568   6 C     3569   6 C                                       1.5347597
  3568   6 C     3570   1 H                                       1.0888627
  3568   6 C     3571   1 H                                       1.0906030
  3569   6 C     3572   6 C                                       1.5292414
  3569   6 C     3573   1 H                                       1.0916681
  3569   6 C     3574   1 H                                       1.0918026
  3572   6 C     3575   6 C                                       1.5300758
  3572   6 C     3576   1 H                                       1.0913607
  3572   6 C     3577   1 H                                       1.0922484
  3575   6 C     3579   1 H                                       1.0923698
  3575   6 C     3580   1 H                                       1.0880203
  3578   6 C     3581   7 N                                       1.3353880
  3581   7 N     3582   6 C                                       1.4428319
  3581   7 N     3583   1 H                                       1.0176226
  3566   6 C     3584   8 O                                       1.2187239
  3582   6 C     3585   6 C                                       1.5290797
  3582   6 C     3586   1 H                                       1.0959298
  3582   6 C     3587   1 H                                       1.0931889
  3585   6 C     3588   6 C                                       1.5273464
  3585   6 C     3589   1 H                                       1.0918176
  3585   6 C     3590   1 H                                       1.0899106
  3588   6 C     3591   6 C                                       1.5297629
  3588   6 C     3592   1 H                                       1.0908768
  3588   6 C     3593   1 H                                       1.0918089
  3591   6 C     3594   6 C                                       1.5298508
  3591   6 C     3595   1 H                                       1.0922627
  3591   6 C     3596   1 H                                       1.0912211
  3594   6 C     3597   6 C                                       1.5226581
  3594   6 C     3598   1 H                                       1.0919722
  3594   6 C     3599   1 H                                       1.0904881
  3597   6 C     3600   7 N                                       1.4514285
  3597   6 C     3601   1 H                                       1.0942505
  3597   6 C     3602   1 H                                       1.0959472
  3578   6 C     3603   8 O                                       1.2268891
  3600   7 N     3604   6 C                                       1.3330674
  3600   7 N     3605   1 H                                       1.0138995
  3606   6 C     3607   6 C                                       1.5270557
  3606   6 C     3608   1 H                                       1.0930379
  3606   6 C     3609   1 H                                       1.0892973
  3607   6 C     3610   6 C                                       1.5280695
  3607   6 C     3611   1 H                                       1.0930015
  3607   6 C     3612   1 H                                       1.0913815
  3610   6 C     3613   6 C                                       1.5306281
  3610   6 C     3614   1 H                                       1.0925334
  3610   6 C     3615   1 H                                       1.0906952
  3613   6 C     3617   1 H                                       1.0911479
  3613   6 C     3618   1 H                                       1.0885387
  3616   6 C     3619   7 N                                       1.3398853
  3604   6 C     3620   8 O                                       1.2330927
  3619   7 N     3621   6 C                                       1.4507827
  3619   7 N     3622   1 H                                       1.0129702
  3621   6 C     3623   6 C                                       1.5321096
  3621   6 C     3624   1 H                                       1.0924078
  3621   6 C     3625   1 H                                       1.0903676
  3623   6 C     3626   6 C                                       1.5281041
  3623   6 C     3627   1 H                                       1.0917641
  3623   6 C     3628   1 H                                       1.0914511
  3626   6 C     3629   6 C                                       1.5264115
  3626   6 C     3630   1 H                                       1.0891850
  3626   6 C     3631   1 H                                       1.0930137
  3629   6 C     3632   6 C                                       1.5288425
  3629   6 C     3633   1 H                                       1.0919040
  3629   6 C     3634   1 H                                       1.0889896
  3632   6 C     3635   6 C                                       1.5277385
  3632   6 C     3636   1 H                                       1.0911766
  3632   6 C     3637   1 H                                       1.0925621
  3635   6 C     3638   7 N                                       1.4453272
  3635   6 C     3639   1 H                                       1.0959376
  3635   6 C     3640   1 H                                       1.0914110
  3638   7 N     3641   6 C                                       1.3393732
  3638   7 N     3642   1 H                                       1.0151632
  3616   6 C     3643   8 O                                       1.2250790
  3644   6 C     3645   6 C                                       1.5304101
  3644   6 C     3646   1 H                                       1.0905208
  3644   6 C     3647   1 H                                       1.0900109
  3645   6 C     3648   6 C                                       1.5271402
  3645   6 C     3649   1 H                                       1.0919560
  3645   6 C     3650   1 H                                       1.0915046
  3648   6 C     3651   6 C                                       1.5307555
  3648   6 C     3652   1 H                                       1.0900408
  3648   6 C     3653   1 H                                       1.0920973
  3651   6 C     3655   1 H                                       1.0912600
  3651   6 C     3656   1 H                                       1.0909166
  3654   6 C     3657   7 N                                       1.3408137
  3657   7 N     3658   6 C                                       1.4465122
  3657   7 N     3659   1 H                                       1.0139264
  3641   6 C     3660   8 O                                       1.2251916
  3658   6 C     3661   6 C                                       1.5265493
  3658   6 C     3662   1 H                                       1.0923493
  3658   6 C     3663   1 H                                       1.0954413
  3661   6 C     3664   6 C                                       1.5261999
  3661   6 C     3665   1 H                                       1.0899471
  3661   6 C     3666   1 H                                       1.0927155
  3664   6 C     3667   6 C                                       1.5284992
  3664   6 C     3668   1 H                                       1.0927128
  3664   6 C     3669   1 H                                       1.0898002
  3667   6 C     3670   6 C                                       1.5264987
  3667   6 C     3671   1 H                                       1.0915740
  3667   6 C     3672   1 H                                       1.0916328
  3670   6 C     3673   6 C                                       1.5277074
  3670   6 C     3674   1 H                                       1.0902186
  3670   6 C     3675   1 H                                       1.0893074
  3673   6 C     3676   7 N                                       1.4462453
  3673   6 C     3677   1 H                                       1.0956163
  3673   6 C     3678   1 H                                       1.0919089
  3676   7 N     3679   6 C                                       1.3310595
  3676   7 N     3680   1 H                                       1.0212853
  3654   6 C     3681   8 O                                       1.2227684
  3682   6 C     3683   6 C                                       1.5336049
  3682   6 C     3684   1 H                                       1.0881260
  3682   6 C     3685   1 H                                       1.0900862
  3683   6 C     3686   6 C                                       1.5265893
  3683   6 C     3687   1 H                                       1.0915345
  3683   6 C     3688   1 H                                       1.0922351
  3686   6 C     3689   6 C                                       1.5321994
  3686   6 C     3690   1 H                                       1.0923677
  3686   6 C     3691   1 H                                       1.0895983
  3689   6 C     3693   1 H                                       1.0895064
  3689   6 C     3694   1 H                                       1.0916199
  3692   6 C     3695   7 N                                       1.3305616
  3679   6 C     3696   8 O                                       1.2366394
  3695   7 N     3697   6 C                                       1.4448713
  3695   7 N     3698   1 H                                       1.0214493
  3697   6 C     3699   6 C                                       1.5270505
  3697   6 C     3700   1 H                                       1.0971624
  3697   6 C     3701   1 H                                       1.0918459
  3699   6 C     3702   6 C                                       1.5273948
  3699   6 C     3703   1 H                                       1.0914633
  3699   6 C     3704   1 H                                       1.0924802
  3702   6 C     3705   6 C                                       1.5282670
  3702   6 C     3706   1 H                                       1.0915281
  3702   6 C     3707   1 H                                       1.0901018
  3705   6 C     3708   6 C                                       1.5294246
  3705   6 C     3709   1 H                                       1.0920353
  3705   6 C     3710   1 H                                       1.0932995
  3708   6 C     3711   6 C                                       1.5267541
  3708   6 C     3712   1 H                                       1.0914562
  3708   6 C     3713   1 H                                       1.0910615
  3711   6 C     3714   7 N                                       1.4445679
  3711   6 C     3715   1 H                                       1.0954816
  3711   6 C     3716   1 H                                       1.0936719
  3714   7 N     3717   6 C                                       1.3373667
  3714   7 N     3718   1 H                                       1.0184960
  3692   6 C     3719   8 O                                       1.2308321
  3720   6 C     3721   6 C                                       1.5310615
  3720   6 C     3722   1 H                                       1.0935183
  3720   6 C     3723   1 H                                       1.0889387
  3721   6 C     3724   6 C                                       1.5295771
  3721   6 C     3725   1 H                                       1.0937885
  3721   6 C     3726   1 H                                       1.0913326
  3724   6 C     3727   6 C                                       1.5281139
  3724   6 C     3728   1 H                                       1.0899594
  3724   6 C     3729   1 H                                       1.0928371
  3727   6 C     3731   1 H                                       1.0941973
  3727   6 C     3732   1 H                                       1.0920862
  3730   6 C     3733   7 N                                       1.3342300
  3733   7 N     3734   6 C                                       1.4475645
  3733   7 N     3735   1 H                                       1.0081231
  3717   6 C     3736   8 O                                       1.2261117
  3734   6 C     3737   6 C                                       1.5216115
  3734   6 C     3738   1 H                                       1.0995364
  3734   6 C     3739   1 H                                       1.0936251
  3737   6 C     3740   6 C                                       1.5311045
  3737   6 C     3741   1 H                                       1.0918559
  3737   6 C     3742   1 H                                       1.0918384
  3740   6 C     3743   6 C                                       1.5294814
  3740   6 C     3744   1 H                                       1.0897866
  3740   6 C     3745   1 H                                       1.0902658
  3743   6 C     3746   6 C                                       1.5272955
  3743   6 C     3747   1 H                                       1.0926197
  3743   6 C     3748   1 H                                       1.0920462
  3746   6 C     3749   6 C                                       1.5262844
  3746   6 C     3750   1 H                                       1.0917424
  3746   6 C     3751   1 H                                       1.0906656
  3749   6 C     3752   7 N                                       1.4468385
  3749   6 C     3753   1 H                                       1.0939253
  3749   6 C     3754   1 H                                       1.0960159
  3752   7 N     3755   6 C                                       1.3330732
  3752   7 N     3756   1 H                                       1.0159366
  3730   6 C     3757   8 O                                       1.2337209
  3758   6 C     3759   6 C                                       1.5293998
  3758   6 C     3760   1 H                                       1.0927017
  3758   6 C     3761   1 H                                       1.0916026
  3759   6 C     3762   6 C                                       1.5269328
  3759   6 C     3763   1 H                                       1.0891370
  3759   6 C     3764   1 H                                       1.0929598
  3762   6 C     3765   6 C                                       1.5331141
  3762   6 C     3766   1 H                                       1.0911894
  3762   6 C     3767   1 H                                       1.0924429
  3765   6 C     3769   1 H                                       1.0925583
  3765   6 C     3770   1 H                                       1.0884468
  3768   6 C     3771   7 N                                       1.3375662
  3755   6 C     3772   8 O                                       1.2326589
  3771   7 N     3773   6 C                                       1.4485959
  3771   7 N     3774   1 H                                       1.0122286
  3773   6 C     3775   6 C                                       1.5212933
  3773   6 C     3776   1 H                                       1.0958643
  3773   6 C     3777   1 H                                       1.0963297
  3775   6 C     3778   6 C                                       1.5263931
  3775   6 C     3779   1 H                                       1.0929265
  3775   6 C     3780   1 H                                       1.0917520
  3778   6 C     3781   6 C                                       1.5263119
  3778   6 C     3782   1 H                                       1.0917677
  3778   6 C     3783   1 H                                       1.0894295
  3781   6 C     3784   6 C                                       1.5278238
  3781   6 C     3785   1 H                                       1.0933654
  3781   6 C     3786   1 H                                       1.0940397
  3784   6 C     3787   6 C                                       1.5367875
  3784   6 C     3788   1 H                                       1.0958084
  3784   6 C     3789   1 H                                       1.0927079
  3787   6 C     3790   7 N                                       1.4519948
  3787   6 C     3791   1 H                                       1.0913191
  3787   6 C     3792   1 H                                       1.0955885
  3790   7 N     3793   1 H                                       1.0140261
  3790   7 N     3794   1 H                                       1.0156634
  3768   6 C     3795   8 O                                       1.2231732

 * 6 distinct bonds (by element types)

   Z      Z             #   av. dist./Å        max./Å        min./Å
   1 H    6 C        1980     1.0920318     1.1047792     1.0854340
   6 C    6 C         790     1.5283474     1.5392410     1.5195359
   1 H    7 N         209     1.0152666     1.0295234     1.0060809
   6 C    7 N         385     1.3937519     1.4603397     1.3242847
   1 H    8 O           5     0.9908490     0.9973001     0.9852071
   6 C    8 O         209     1.2310847     1.3245454     1.2067940


optimized geometry written to: xtbopt.xyz


           -------------------------------------------------
          | TOTAL ENERGY            -5103.085592556394 Eh   |
          | GRADIENT NORM               0.000868442015 Eh/α |
          | HOMO-LUMO GAP               2.852616684044 eV   |
           -------------------------------------------------

------------------------------------------------------------------------
 * finished run on 2024/10/25 at 04:56:23.540     
------------------------------------------------------------------------
 total:
 * wall-time:    17 d,  2 h, 47 min, 32.298 sec
 *  cpu-time:   102 d, 12 h, 26 min,  7.716 sec
 * ratio c/w:     5.989 speedup
 SCF:
 * wall-time:     0 d,  0 h, 33 min, 44.406 sec
 *  cpu-time:     0 d,  3 h, 53 min, 11.376 sec
 * ratio c/w:     6.911 speedup
 ANC optimizer:
 * wall-time:    17 d,  2 h, 12 min, 42.340 sec
 *  cpu-time:   102 d,  8 h, 31 min, 30.420 sec
 * ratio c/w:     5.988 speedup

