3536
 energy: -3716.286920157081 gnorm: 0.000992093631 xtb: 6.6.1 (8d0f1dd)
C           58.66742948066606       38.83596909634360       52.87008321042995
C           58.92772201174506       40.26385233448222       53.34476270259080
C           57.90946735102472       40.64113138088464       54.42005963556075
C           58.85905812874728       41.27607478285085       52.19356273424371
C           59.86989582691864       41.07436710918172       51.05924456019219
C           61.30098698758107       41.04156601537246       51.59654696403578
C           59.76992208221474       42.19495281471885       50.01063519406213
C           58.42609213461278       42.35835169376515       49.28764804243384
C           57.98872138872393       41.05220642889793       48.62541275820801
C           58.52685018970151       43.45431410588559       48.21245655844756
C           58.54097201432745       44.89951333519095       48.73619438240380
C           57.13085542681123       45.34236446328801       49.11854861456548
C           59.14054894987342       45.81411650821018       47.65889160545786
C           59.20123965301966       47.31727638815092       47.97576442486682
C           59.75494212399307       48.04049429546720       46.74845281154185
C           60.05036054722745       47.58425869174241       49.22331445280678
C           60.24783217670873       49.05146288242059       49.63746999968335
C           61.26266408070011       49.09067924925915       50.78079847568260
C           58.94092055182746       49.71770546233886       50.08557038471260
C           58.99340289859849       51.25577328491719       50.11529957832473
C           57.94620403378246       51.77270540688052       51.10213924485745
C           58.76379484503767       51.85872945581922       48.71624143405049
C           59.69813179057606       53.00441858801848       48.28185006749176
C           61.11435619047907       52.48339991522783       48.04973186003174
C           59.63848738516665       54.18624849523052       49.25838169227205
C           60.54056867764227       55.39771612962685       48.96126804721145
C           60.25651985686388       56.47893952746390       50.00593780818920
C           60.32692100086140       55.95792827390375       47.55160150980196
C           61.34608243567388       57.01426653340435       47.09018754443409
C           60.84491352993604       57.63764623151406       45.78901686854626
C           62.73500252137071       56.38474780455748       46.91413534415530
C           63.81786179633055       57.24811396186531       46.24704545810194
C           65.07679979099343       56.39278796651821       46.09461550489445
C           64.10778663814415       58.51861495488942       47.05333705068647
C           65.06582550584497       59.51362689053895       46.38281521648398
C           65.40695996079340       60.62952745259378       47.37118934095463
C           64.48072057765626       60.11705603854005       45.09134514657474
C           65.13333373980142       59.63309983823112       43.79065590113849
C           66.56551964916120       60.15653784946586       43.67879910556035
C           64.32627228394757       60.11552978753912       42.57515161842915
C           63.05980418904234       59.30204611281516       42.26643181908714
C           63.42003067025082       58.01131319205057       41.53716747586291
C           62.10471545480667       60.17291143431636       41.43890533770028
C           60.77189845001243       59.54371986625015       40.99836047520460
C           59.94889067059803       60.63221479819283       40.30714211798293
C           60.03151177460864       58.94353401634648       42.19780969129803
C           58.58371426171651       58.48244677760601       41.97283948615068
C           58.07688625454460       57.89005645549879       43.28727929704645
C           58.47269577705151       57.47431210170546       40.82238521029223
C           57.09830396669052       56.80529497096686       40.65561679054234
C           57.15303869640983       55.84244662146142       39.47221234585216
C           55.97431041849416       57.83313343739531       40.47299698879867
C           54.54092156834523       57.27223981291350       40.42442943744820
C           53.56502640616287       58.44089612835815       40.28480402148460
C           54.24881211589042       56.44630455657805       41.68158619771275
C           52.82515442229000       55.90492721304748       41.87900743102877
C           52.80696952240594       55.16232960266392       43.21429009114067
C           52.40928748401773       54.97143982984248       40.73651480607889
C           50.96819900877438       54.44027251984117       40.80889429743592
C           50.83457188874684       53.22270376535107       39.89354077579002
C           49.96119058154692       55.52726386621514       40.41317834495877
C           48.50938962972965       55.25424000016720       40.84273057828306
C           47.56101516939259       56.03867216795541       39.93567999658947
C           48.30493173809430       55.63450036872103       42.31396096619932
C           46.96756897560297       55.20439774536401       42.93240175512024
C           46.81715500447130       55.84661492963833       44.31211487930570
C           46.83561699786438       53.67288189685343       43.02831697838318
C           45.78566487232135       53.07579852150288       42.08405510511805
C           44.37791979226799       53.42191289968449       42.57147831031591
C           45.92006783384555       51.54949954955060       41.99591211595131
C           47.15599815904961       51.02297204160560       41.25301173858733
C           47.08482976289358       51.34149162482915       39.76124473961210
C           47.25872198711782       49.50792254698228       41.47489483795755
C           48.60917207582902       48.85819827522852       41.13474026114461
C           48.43299053420842       47.34097925394701       41.21349320480901
C           49.69962100729278       49.38126983171175       42.08220051160077
C           51.03674862782898       48.62665832754551       42.09890869032745
C           51.96120810588046       49.30032963897834       43.11358404223396
C           51.67977858661929       48.58398817338175       40.70908901702445
C           52.99951608277209       47.80232391916271       40.59887675370603
C           53.49856344770501       47.89659557789599       39.15692359134302
C           52.81538209554725       46.34194018353615       41.02748551790098
C           54.05692014608275       45.44000701331272       40.94337204084989
C           53.63235358971585       44.00409868966827       41.25445999885324
C           55.14119449306913       45.93095991664529       41.91093500261762
C           56.40433898884427       45.06602417390342       42.03237172142479
C           57.30346518483216       45.65893120599504       43.11835839191171
C           57.14553919772775       44.97375671215419       40.69509580467063
C           58.35564041913607       44.04241301397310       40.71943163046558
C           59.01299821615943       43.94245485607112       39.34772037480533
H           57.70194349970640       38.76894059558661       52.37114110043551
H           59.43510515828190       38.50217318723814       52.17649129096618
H           58.65786660565232       38.14959628663426       53.71530217818640
H           59.36027341157102       44.92044370435934       39.02126205298320
H           59.86670553744308       43.26843272218829       39.37853882673090
H           58.30730938933380       43.56668554364140       38.60937534068618
H           56.45832297292728       44.61204128633032       39.92736363901970
H           57.46849550943226       45.97565664866107       40.40024571077284
H           55.45416411164533       46.93298976500734       41.61015933353425
H           54.69133012637588       46.01165218882560       42.90290314264195
H           54.43989875309987       45.46367237673371       39.91934633483984
H           53.30672962623167       43.91851696220005       42.28894126190519
H           52.80466397196169       43.70617533152401       40.61342668587908
H           54.44824921720403       43.30520229473257       41.09043488337522
H           52.46739038611841       46.31592997198337       42.06157514696562
H           52.03040656760631       45.90392568387520       40.40323340987261
H           50.97371721274676       48.14574535256487       40.00109780621919
H           51.86360621035004       49.61312104663683       40.38690722602890
H           56.11963894953174       44.05539475063891       42.34375156921588
H           56.73760174771257       45.81742737578225       44.03369352461169
H           58.13251341353023       44.99506940763015       43.34888315389617
H           57.70438184396070       46.61730943854003       42.79674995884257
H           53.73909825328028       48.27563053260790       41.25048279346461
H           52.85497862632763       47.32265083610049       38.49245694158225
H           53.49523798539244       48.93132766914525       38.82150898042310
H           54.51289782155037       47.51861463864974       39.06446352466897
H           50.84369670493303       47.60526608361805       42.43623629361282
H           51.46626780168575       49.38930111338797       44.07852538236634
H           52.87463155062799       48.72777373326164       43.25339266847160
H           52.23027877041401       50.29944262370079       42.77697143706848
H           49.90697932674752       50.42309692618029       41.82834491175728
H           49.30005303724824       49.36740363908806       43.09992494344293
H           48.87935817544059       49.11515621597975       40.10549601222093
H           47.64333911316461       47.02240792377471       40.53511006500304
H           49.34182991290199       46.81545285129408       40.93505231407002
H           48.15319045609589       47.04055576261813       42.22012375194844
H           47.04291288056081       49.29015542085585       42.52457570391780
H           46.47718391667717       49.02518766871120       40.88163083236465
H           48.04629822021634       51.49952809843109       41.67077380368585
H           47.04913306902807       52.41419816816958       39.58703559661305
H           47.95546561301266       50.94825793755994       39.24166022570022
H           46.19436125119492       50.89650495088099       39.32048107796130
H           45.93063556669521       51.15651263305034       43.01649808879161
H           45.03072703230806       51.14617957447566       41.50380785593519
H           45.91638340079430       53.50529769026018       41.08641030221967
H           44.25284057308888       54.49661105253119       42.67896828965307
H           43.62739452212639       53.06240054977014       41.87004277798429
H           44.19062515386356       52.95935329609504       43.53896571666939
H           47.80571327854004       53.21999827611765       42.82133125068908
H           46.56183159387923       53.39284806609504       44.04828968854034
H           46.16090331045776       55.59239536404437       42.30336238298866
H           47.61926183415986       55.52653480232684       44.97389543798295
H           46.84906532148099       56.93160427054706       44.23388651658656
H           45.86670044741704       55.56807573371010       44.76218479860303
H           49.11393401966388       55.20475346221298       42.90965678898915
H           48.38558650015993       56.72175122839462       42.39362793515382
H           48.29773105065131       54.18868488266320       40.71956794725352
H           47.75542466159305       57.10693198334821       40.01574403389763
H           47.69708618628285       55.74466669284109       38.89645350840882
H           46.52113489136428       55.86101879942198       40.19870429927472
H           50.26762795597602       56.48277887659198       40.84378253493945
H           49.99622561011063       55.63881868276828       39.32597362283258
H           50.75687005894019       54.11306025406993       41.82977676548292
H           49.81728196042484       52.83967624423390       39.89460593826497
H           51.09783239596138       53.48388030370040       38.86976462605341
H           51.49634087052904       52.42349988900397       40.22225911767811
H           52.52750926392144       55.48779703544770       39.78118299281486
H           53.09513326982587       54.11954754822903       40.73475019912126
H           52.12428784220965       56.74255142744950       41.93866320612315
H           51.80105026558793       54.85623897971305       43.48433605249658
H           53.43533325592217       54.27664846860616       43.15790474631184
H           53.18714821347440       55.80088492310544       44.00713273394415
H           54.91860034919797       55.58610696063302       41.69418738511946
H           54.49047512043873       57.06753747316463       42.54899360920035
H           54.43948478847089       56.63772527935582       39.53856332175452
H           52.55173730158252       58.08855796377670       40.11027315404559
H           53.56781809377453       59.04912798566539       41.18764674575322
H           53.84787302791919       59.07653864260025       39.44759539083665
H           56.01292511783326       58.55011872717137       41.29413217452093
H           56.16041886136050       58.38777432865076       39.54809999131339
H           56.90518227113707       56.21765312079893       41.55393619352161
H           57.31732398361746       56.38713096320398       38.54369414510802
H           57.96478671532445       55.12884331001510       39.59734921922030
H           56.22453267040092       55.28399330974746       39.38336893474072
H           58.73097188191930       57.97122246680085       39.88474209753490
H           59.21194087190842       56.68456940674769       40.98459276933305
H           57.97745886017802       59.36108746457569       41.73392420783876
H           58.23149225745599       58.59489981252469       44.10082564790007
H           57.01701206126792       57.66246756578825       43.23567600370227
H           58.61664418782571       56.97601609189516       43.52424205833699
H           60.60054306954333       58.08628164062301       42.56256699979213
H           60.01959643021593       59.69167762782622       42.99463672254480
H           60.97645273706470       58.75258202368115       40.27014261785745
H           60.53482966827004       61.10623257621462       39.52163745384412
H           59.04874406724484       60.22597393996220       39.85475415509561
H           59.65806972021885       61.39851312901875       41.02303168238507
H           61.87321939282297       61.06548140460384       42.02680290693166
H           62.63778208447130       60.50424816634726       40.54262335835681
H           62.57082903899453       59.04438050480530       43.20960202041044
H           63.82662528574176       58.23213040569782       40.55173998111007
H           64.16478190226189       57.44761449258890       42.09439764341742
H           62.54447474608243       57.37947658731591       41.41338262196520
H           64.05069634051698       61.15930681176040       42.74726948030585
H           64.96666640737376       60.09520853977677       41.68965797855288
H           65.16372778577112       58.53927800434881       43.79035463193475
H           66.56371126582673       61.24243191990953       43.60236769662259
H           67.15852713217767       59.87904859910394       44.54671178295524
H           67.05362944922163       59.75317741156876       42.79366357327693
H           63.41214880333266       59.90572086181389       45.05091289682558
H           64.58463099762308       61.20447228527934       45.12452969650145
H           65.99581814125160       58.98960758013199       46.14690951983677
H           65.83624710595224       60.22315799975573       48.28421772316228
H           66.12588114952976       61.32128657744962       46.93687650689637
H           64.50978833019236       61.18747935542056       47.63268227209757
H           63.17110190257961       59.04132197134840       47.25613669639541
H           64.53083582134569       58.22410773544483       48.01793091771963
H           63.47991976631189       57.52741748170924       45.24554140182747
H           65.85439529636565       56.92033168574359       45.54812083147703
H           65.47095352920439       56.11818381195975       47.07094971999571
H           64.85067949412989       55.47846884975781       45.54983124803247
H           63.11078431168016       56.07931270369273       47.89363252271793
H           62.62003847202057       55.47881561464111       46.31189642072736
H           61.40562460859407       57.80429217742043       47.84491299092313
H           59.82392356969442       57.99269066183620       45.90844801843143
H           61.45965828674218       58.48322977695344       45.49223139485172
H           60.86103313564622       56.90584965643292       44.98399136383109
H           60.35436948437810       55.14121304891624       46.83079582468960
H           59.32553714443363       56.39550658102957       47.50993164836348
H           61.58285311625322       55.08137641957878       49.06645030960942
H           59.26103962767469       56.89406316861798       49.85979573435853
H           60.30517337307062       56.06864626808571       51.01164591174335
H           60.97825173396471       57.28946126823858       49.94193669507057
H           58.60339312134418       54.53393562267228       49.29540118334426
H           59.90057654081997       53.82736622648596       50.25547452587927
H           59.31284851576237       53.34914713497384       47.31394636861810
H           61.76398008255201       53.26879246101447       47.67272450889850
H           61.54638113784588       52.09154321264553       48.96517000538839
H           61.09888307708527       51.68156014999155       47.31287238576077
H           58.86091264812339       51.07013551901885       47.96694121219164
H           57.73461428240217       52.22021320491117       48.66009923882961
H           59.97757710696302       51.55984473896453       50.47998456035636
H           58.16838050176533       51.43027370629209       52.11077301910388
H           57.91952583591237       52.85776358598270       51.10918348505409
H           56.95829651684925       51.40657732413688       50.82988339143241
H           58.12292355212954       49.41496033301011       49.43032449160673
H           58.70137122642065       49.34947769813462       51.08601882181871
H           60.66362161537434       49.60947118721269       48.79409960959502
H           61.41608608332159       50.10625393809567       51.13538944099506
H           60.91348512878434       48.49014503000208       51.61943241691153
H           62.22592976504538       48.69830556157194       50.46085187215106
H           59.59702785440768       47.06235463194758       50.06827482275521
H           61.03710002622849       47.14091148742873       49.05547823305333
H           58.18263424459386       47.67193835938835       48.14688880602372
H           59.17397148166683       47.78226144629271       45.86435723952822
H           59.71442886895106       49.11946720382158       46.87269323876505
H           60.78981245926146       47.75153346430419       46.57013472356967
H           60.15635885765597       45.47086539620986       47.44175913683810
H           58.55406612136899       45.68539607850376       46.74371372755007
H           59.17758919695689       44.93818155389646       49.62268346681258
H           56.65396534743902       44.59817406439701       49.75180047030066
H           57.15148950300142       46.28296411478446       49.66215339867027
H           56.52013995441740       45.47219048473163       48.22673009161413
H           59.43376594431623       43.27321120272457       47.62848276698689
H           57.68182918978699       43.35254650097033       47.52605344811170
H           57.66111266097327       42.64698892334007       50.01404510064523
H           57.80770092752216       40.27456351070740       49.36209976859010
H           57.06755126278011       41.20187741798981       48.06527267628223
H           58.75267171333140       40.70175473696337       47.93350116280335
H           60.02132780295752       43.13852657154686       50.50060447485038
H           60.53597687644460       42.00606876125302       49.25192448797014
H           59.67265467454013       40.11864108920032       50.56477801808377
H           62.01608502424293       41.01658102691827       50.77601006694990
H           61.49793472469295       41.92706045523433       52.19761589651592
H           61.47075093584052       40.16192100048172       52.21156958833001
H           57.85212460638977       41.24190933376735       51.77345795261345
H           59.01312658606071       42.27460099859971       52.60866585838992
H           59.92284812191537       40.30414271678590       53.79907101475725
H           57.97363539117167       39.95746248694257       55.26478179944291
H           58.08365372486579       41.65099096751921       54.78386644045878
H           56.89755049143118       40.59302696158879       54.02429260149209
H           59.09244099881040       44.40650158388115       41.43699017931137
H           58.03920139297745       43.04786276770470       41.04498561853833
C           65.28421281300919       39.00493145034523       62.63835410564054
C           63.83742135874039       38.92942830164544       63.12098057616416
C           63.77140821689001       39.31349558394036       64.59875044922589
C           63.24627010000525       37.52764541046462       62.92448709635764
C           62.97846255675791       37.13097008857213       61.46427659440908
C           61.71300986234682       37.80571495309912       60.94138262766063
C           62.87904991258064       35.60173532229223       61.37529574296953
C           62.59836412355215       34.99958592323265       59.98900466398448
C           62.50310165117991       33.48077021219910       60.13921006739555
C           63.68578185681207       35.39458701628093       58.98388041415730
C           63.45460817473772       34.94638725969044       57.53400373222672
C           64.69052475861476       35.30142210819199       56.70496153947607
C           62.19153993799355       35.58371571482819       56.92232775925977
C           61.11858033212838       34.56796436965623       56.51477430598892
C           61.57054936528665       33.78216461541893       55.28322338339520
C           59.77722068664589       35.24852552310954       56.20843636511268
C           59.00730511505836       35.81730572980455       57.41011225896700
C           58.57534809520200       34.71210735868031       58.37045862433802
C           57.79425384502828       36.59146756853431       56.87367128911036
C           56.88447431470360       37.26476979691549       57.91272988939733
C           55.70800992842759       37.91269805469665       57.18303654231656
C           57.67230220152970       38.28861052514229       58.73661801612042
C           56.87608095325353       39.12867104536809       59.74503215837507
C           57.82995234225374       40.14371186707564       60.37425180612249
C           56.22452786062454       38.24416424110129       60.81224761648680
C           55.32031974985444       38.96104481661835       61.82496246409703
C           54.95855515338649       37.97556866289906       62.93940924866527
C           54.03275821707523       39.51822745181482       61.19026241945109
C           54.06626303451453       40.99866700950273       60.78797178112793
C           54.18237851256865       41.89243391951120       62.02255852356377
C           52.78736613080076       41.39921605896479       60.03628947159386
C           52.55304629722333       40.75185921503114       58.66596687820514
C           53.54635475064201       41.27914972544824       57.63140909404817
C           51.12536470275079       41.03561125021595       58.17360288653947
C           49.99931483716882       40.35139408765402       58.95738350067813
C           50.01037890333861       38.83956527822609       58.74039175568846
C           48.63708961004910       40.93317039159225       58.54853469384070
C           47.53443555112820       40.71290703098933       59.60043147677843
C           46.24221270319631       40.22613300970830       58.94343836621890
C           47.23367671238263       41.99101890037956       60.39579834459722
C           48.38558405969874       42.54791246407680       61.24538765728173
C           48.67349862844874       41.63834428756107       62.43766670202636
C           48.00525090480838       43.96422049432328       61.70216370660126
C           48.99363504123152       44.68113663778097       62.63415740266708
C           48.38481006470301       46.01880615409689       63.05450997683561
C           50.35353834447865       44.87162285558071       61.95143863900707
C           51.42122671944315       45.62161739962040       62.76242827014242
C           52.61718051550879       45.90518382751519       61.85418900841167
C           51.84480284488848       44.81234956363147       63.99468289570106
C           52.68624541081436       45.56749228875928       65.03526407830192
C           53.32107562124827       44.55777363357886       65.99144411505848
C           51.82404471611130       46.58132444101637       65.79602737555147
C           52.57549352151967       47.56242735053125       66.70890829673633
C           51.55952205238140       48.29707365530249       67.58417456243728
C           53.40162709033348       48.55623626154266       65.88474297836643
C           54.41115596932593       49.39919396068915       66.67826007507902
C           54.85891734964151       50.57624958006851       65.81283908030528
C           55.60999359128353       48.54576547921703       67.10482485047400
C           56.58447205129843       49.18629539518393       68.10538696104540
C           57.83781379919708       48.31664287562454       68.17439046706578
C           55.92842571617535       49.34136327721190       69.48329502184126
C           56.82234331222621       49.88641715288652       70.60665576003035
C           56.08218545736057       49.75086383892501       71.93844959423561
C           57.22410549118868       51.34825931649057       70.37267199048017
C           58.49056850332339       51.77394000109410       71.13221658138764
C           58.49229711634052       53.28800240007561       71.33795678345233
C           59.74285984104831       51.32900090307764       70.36825409384414
C           61.05461767929010       51.44273244825060       71.16626930764774
C           62.00417444830668       52.44240944519499       70.50425736159075
C           61.76304005106410       50.08805448454567       71.29781386528143
C           61.03520921588710       49.04227796906992       72.15182325851546
C           61.06484744862752       49.42257536908495       73.63140072430423
C           61.69058834737298       47.66505566720660       71.95949059719997
C           61.25821358295943       46.92979460850696       70.68012969371271
C           59.94068023517401       46.19595655038047       70.92201081374088
C           62.36390412478342       45.95871587005662       70.23834836354963
C           62.19754789404507       45.33706626008340       68.83952213195720
C           62.64615290631028       43.87419395509872       68.86139456441153
C           62.99935610177094       46.08653005802400       67.76505205292790
C           62.49224165786116       47.49167524092962       67.42746477448934
C           61.13062233690131       47.41632052311586       66.73939602875765
C           63.45904604367120       48.24121090192826       66.50187404429154
C           64.84700531040022       48.57392999287074       67.06285893689042
C           64.74848974708709       49.34596309214908       68.37851771160514
C           65.63493403085481       49.41833188026713       66.04956839384622
C           66.05685001092384       48.69789205614036       64.76117394592089
C           67.22680015281257       47.75307862897738       65.02476229783719
C           66.41066886070627       49.74771618782916       63.70121454232514
C           66.77929600477454       49.20146954812027       62.32245851443348
C           65.65828945722794       48.41327028677366       61.65716121086810
H           65.89430445576821       38.26760011781990       63.15665016356577
H           65.35713810744819       38.82172340179541       61.56957696301945
H           65.69801120978177       39.99038504481248       62.84018723413165
H           65.93900498370382       48.15605028707905       60.63824852369900
H           65.44998272035245       47.49128008243146       62.19329904256417
H           64.74497769971752       49.00417095332074       61.62392218269898
H           65.55647649031512       50.41907061236564       63.58403664254191
H           67.24816424041471       50.34531529802861       64.07319325481799
H           65.02016332161817       50.28299694056327       65.78672174355530
H           66.53753872873436       49.80048041974683       66.53380480915382
H           65.39631617020190       47.64579308046865       67.25099411521006
H           65.73637350168030       49.65667882063981       68.71290138213608
H           64.13881302238219       50.23779147241766       68.24928833405299
H           64.30885404450476       48.73701802423280       69.16403405904187
H           63.57853405339034       47.64420532465723       65.59663536991820
H           62.98246021690769       49.18198478867978       66.21373086276478
H           64.03758954688455       46.14258424390302       68.09968566091274
H           62.98747697635092       45.49508664879104       66.84494904881379
H           65.21236165259735       48.11114968972932       64.39177580234164
H           66.98831991862623       47.05841280352458       65.82704176792905
H           67.46690955794449       47.16898538179233       64.13968514665137