3536
 energy: -3716.270962814991 gnorm: 0.000984658705 xtb: 6.6.1 (8d0f1dd)
C           58.66729907516215       38.83533448037674       52.86932214319818
C           58.92828363219899       40.26268656737563       53.34429514839095
C           57.90967148584859       40.64044333317902       54.41968545451878
C           58.85924109132434       41.27548948471564       52.19314166037996
C           59.87021046148091       41.07372023351565       51.05858942615141
C           61.30120230058185       41.04109348273413       51.59603639563408
C           59.77012358988129       42.19486589961230       50.01042627083416
C           58.42553976384148       42.35825170816668       49.28816462476143
C           57.98913827376404       41.05222234662446       48.62535727277395
C           58.52671830211101       43.45381387248946       48.21233121744443
C           58.54137561115144       44.89909861408955       48.73611705893290
C           57.13056244125335       45.34231660605165       49.11792601696205
C           59.14093697576624       45.81325151712086       47.65824328991312
C           59.20051825838829       47.31671312797801       47.97478456644836
C           59.75565871972832       48.03919859818440       46.74740707461265
C           60.05012221585607       47.58322670916818       49.22262906097261
C           60.24848383522048       49.05052561842043       49.63661213602528
C           61.26327187908090       49.08985244291156       50.78038578194451
C           58.94136232831882       49.71684609174180       50.08510127811456
C           58.99448063494697       51.25510894025667       50.11488740118423
C           57.94658489957452       51.77188639972081       51.10167505083971
C           58.76440589993603       51.85833462461841       48.71573762548545
C           59.69919354915763       53.00399607747419       48.28126955347243
C           61.11552706592980       52.48293291047474       48.04962908520189
C           59.63887978771401       54.18580254606612       49.25838328692818
C           60.54128189856776       55.39734968368533       48.96088191453664
C           60.25666220036985       56.47889180432875       50.00568197209297
C           60.32683572575426       55.95744712642555       47.55112168546776
C           61.34667731987940       57.01379848719032       47.09017650157344
C           60.84496531934687       57.63672815385353       45.78883471271767
C           62.73551830374586       56.38361110019095       46.91345194639333
C           63.81814076666798       57.24759602400347       46.24596206676978
C           65.07675874513717       56.39189209623961       46.09377259621746
C           64.10800761004323       58.51788082298163       47.05330025552352
C           65.06588738713377       59.51301894366793       46.38210413294805
C           65.40705990455902       60.62922365948876       47.37036634669547
C           64.48000981160315       60.11629577746479       45.09091771255203
C           65.13273177818860       59.63181918039945       43.79018798960561
C           66.56427443884412       60.15628772836848       43.67908511489505
C           64.32542013486835       60.11499471962480       42.57525613755759
C           63.05871967356374       59.30153295927846       42.26703578615943
C           63.41891419711028       58.01131470478515       41.53649048580501
C           62.10408473491225       60.17297456720764       41.43941978057532
C           60.77171263881685       59.54357559180521       40.99795692184840
C           59.94801117383032       60.63207708824888       40.30825787302954
C           60.03143090550417       58.94343831663443       42.19776132855819
C           58.58341550993882       58.48289200057435       41.97212028895635
C           58.07646740981548       57.89076546495055       43.28712852845825
C           58.47244996278459       57.47433153523932       40.82193609424852
C           57.09782741207909       56.80504351039275       40.65576708164965
C           57.15247846451319       55.84308087560811       39.47138053423459
C           55.97397974960585       57.83334318850704       40.47306845916587
C           54.54065573686032       57.27222010031475       40.42361841837815
C           53.56453590939022       58.44052527851506       40.28465829750309
C           54.24892367765072       56.44586558861413       41.68088645461107
C           52.82492662089216       55.90464822685077       41.87775857259415
C           52.80699925556124       55.16177194334303       43.21343147591008
C           52.40928658149486       54.97054303143597       40.73575770963595
C           50.96802272718565       54.43934931906519       40.80912787877675
C           50.83548430751507       53.22235023141905       39.89280995820236
C           49.96128918681568       55.52667554326366       40.41289027491789
C           48.50944540567997       55.25322582655453       40.84217369200442
C           47.56140927564021       56.03807764038942       39.93568832949125
C           48.30524600508600       55.63428886564352       42.31358793738015
C           46.96761943476123       55.20381650341488       42.93153330172319
C           46.81609000996240       55.84652750280555       44.31119614458395
C           46.83596209077942       53.67225679246658       43.02801814869264
C           45.78572687711742       53.07552081737762       42.08338585721382
C           44.37845679950990       53.42169085886461       42.57169183142154
C           45.92043145925322       51.54932385403547       41.99551101720685
C           47.15719048316579       51.02356612021654       41.25305605806377
C           47.08539947110457       51.34157241013663       39.76132018976548
C           47.25902271572013       49.50826962157034       41.47477096462582
C           48.60914916847580       48.85830976268251       41.13404433766931
C           48.43315054359972       47.34125026434732       41.21331685255363
C           49.69962782388477       49.38172141167268       42.08157322322683
C           51.03668410105978       48.62664806824674       42.09761175981572
C           51.96146861412303       49.30093082807110       43.11227867343635
C           51.67976296554031       48.58400995755012       40.70779084320583
C           52.99989893738852       47.80249769732761       40.59841876446580
C           53.49836363426301       47.89637129604600       39.15622658183008
C           52.81518895202745       46.34188309528285       41.02695357551851
C           54.05675016909969       45.43986698048458       40.94239665891904
C           53.63251124251445       44.00421437768775       41.25399001765800
C           55.14117120366177       45.93110031275499       41.91003699795157
C           56.40411102979193       45.06547298160735       42.03132888804908
C           57.30343168551210       45.65867245067663       43.11743629057292
C           57.14527764672609       44.97380455913111       40.69409362991827
C           58.35558125843744       44.04268582244590       40.71922825933156
C           59.01239448663180       43.94309564797613       39.34741237854985
H           57.70162848145308       38.76976994346931       52.37118053054146
H           59.43509367764131       38.50309481830608       52.17582525905572
H           58.65818707021267       38.14981582043232       53.71483318495195
H           59.35953196670753       44.92084635043252       39.02028869901527
H           59.86583136480800       43.26904296947266       39.37859220402405
H           58.30626083051487       43.56695188102125       38.60996541597634
H           56.45803152477388       44.61159583310958       39.92730694100230
H           57.46710198194202       45.97618306912318       40.39996250272477
H           55.45455974373869       46.93309239022100       41.60937714441174
H           54.69153596113834       46.01263681697139       42.90221041120648
H           54.43971633908653       45.46457634963703       39.91921558207216
H           53.30712315631389       43.91847935292562       42.28850489821415
H           52.80487151853945       43.70706132176507       40.61306988511615
H           54.44873468400450       43.30628054457030       41.08947871645300
H           52.46737759210427       46.31609188498336       42.06119247420253
H           52.03096690778136       45.90472274891965       40.40230310466520
H           50.97381959237245       48.14486133899098       40.00119506006189
H           51.86325879425166       49.61309525785904       40.38618813972482
H           56.11910502947602       44.05594900779970       42.34353631477116
H           56.73791626231215       45.81744858576028       44.03320038111223
H           58.13250520444550       44.99504965276297       43.34780294512910
H           57.70422788866498       46.61725258321998       42.79585593417250
H           53.73892748305082       48.27604281111296       41.25056035487919
H           52.85398836117471       47.32203142872939       38.49362823021865
H           53.49448766642286       48.93110746274308       38.82099314100000
H           54.51251515531948       47.51839888145000       39.06427723742076
H           50.84413405003830       47.60593556872323       42.43599640172032
H           51.46714185524353       49.39029847550687       44.07778220729718
H           52.87516624780729       48.72875454546578       43.25208104239385
H           52.23035392361011       50.30033158272544       42.77566066447498
H           49.90800884431567       50.42341118754851       41.82837444370013
H           49.30113223573871       49.36800914050364       43.09982611167426
H           48.87987130787297       49.11594565745542       40.10596231871382
H           47.64392166751583       47.02369422782751       40.53466353692298
H           49.34202075714028       46.81588180407167       40.93528791493295
H           48.15257584635882       47.04089252723713       42.21977999340417
H           47.04293680829038       49.29017600234815       42.52430895516762
H           46.47839928727279       49.02652793211301       40.88070292461380
H           48.04730172210930       51.49978713937068       41.67164992321805
H           47.04932749588272       52.41406233144006       39.58688365404148
H           47.95591995453470       50.94804356480948       39.24203665907405
H           46.19484061511173       50.89577736766311       39.32249887193029
H           45.92991931766786       51.15618743755012       43.01604933813132
H           45.03222661016805       51.14696754036207       41.50196717778186
H           45.91726161251598       53.50505984449832       41.08669828103162
H           44.25355108094809       54.49634357653044       42.67911983782811
H           43.62875978912612       53.06181237399870       41.87024318318885
H           44.19172491852144       52.95913791664112       43.53940887372099
H           47.80653997912999       53.21985279670933       42.82197116805769
H           46.56220239833954       53.39292635490892       44.04835668420753
H           46.16171158169939       55.59140094198732       42.30281404482498
H           47.61821073046052       55.52737091703339       44.97403860865394
H           46.84742920661248       56.93145173768247       44.23263490871059
H           45.86590528818839       55.56730230463223       44.76142800546338
H           49.11422221252094       55.20534188834768       42.91028347827967
H           48.38464551103721       56.72142960121766       42.39307708233674
H           48.29863882646244       54.18783694492701       40.72063589280725
H           47.75686736932250       57.10588681474086       40.01656416915384
H           47.69813127331356       55.74363915161341       38.89713121845850
H           46.52191760145438       55.86049485091748       40.19918877924992
H           50.26757510324619       56.48213642227753       40.84319440410901
H           49.99619017928452       55.63622975901567       39.32624104676528
H           50.75724099618821       54.11160490156216       41.83010641278433
H           49.81823181210023       52.83992145089662       39.89294872183070
H           51.10053192512274       53.48509723882950       38.87035609971719
H           51.49703110038092       52.42324602690540       40.22242796266115
H           52.52687570740148       55.48738262344840       39.78142756658308
H           53.09540195053809       54.11907752172200       40.73486758081946
H           52.12449819057605       56.74170547341408       41.93853288753198
H           51.80112242057735       54.85582112821831       43.48403314675200
H           53.43480402606892       54.27551034060615       43.15661546831647
H           53.18844940814451       55.79930902590669       44.00685646494158
H           54.91805033549716       55.58510455848547       41.69389284395321
H           54.49041183560435       57.06600760257651       42.54923698458533
H           54.43988081526717       56.63697430950126       39.53930673380223
H           52.55172937976474       58.08738939612597       40.11032985870971
H           53.56756246395750       59.04877531580401       41.18746159436385
H           53.84807985106627       59.07515996088425       39.44761296531480
H           56.01256777328770       58.54988241451839       41.29449125713383
H           56.16043676706533       58.38635462622210       39.54834716048869
H           56.90525137808168       56.21724884888730       41.55428928920993
H           57.31652001287173       56.38947594446288       38.54448877648134
H           57.96437544118280       55.12970128304011       39.59663811977481
H           56.22392710763009       55.28480464197696       39.38330936913933
H           58.72960210208256       57.97166285053984       39.88504221565986
H           59.21143811407366       56.68477749441183       40.98471663503499
H           57.97728121318776       59.36096344207957       41.73398223642057
H           58.23082403978864       58.59546127089914       44.10112922072173
H           57.01661306837484       57.66231172444937       43.23636830714175
H           58.61613692436182       56.97667883041493       43.52509612551484
H           60.59936071643666       58.08584680566329       42.56327793706345
H           60.01827670504827       59.69136524760513       42.99468044729389
H           60.97596237757928       58.75223075858439       40.27086330429544
H           60.53421773085479       61.10658745731134       39.52387614100978
H           59.04816012796437       60.22583211013458       39.85554256013311
H           59.65701986565125       61.39707139655272       41.02541648499803
H           61.87217888869811       61.06506932733695       42.02743553826390
H           62.63719736612611       60.50301338530477       40.54360694322381
H           62.56968605256341       59.04342991906444       43.21013088823333
H           63.82482342602046       58.23383663933597       40.55161113145223
H           64.16368083233505       57.44737331680493       42.09339833440833
H           62.54321191446457       57.37961444503377       41.41296361365441
H           64.04992360117114       61.15840832922356       42.74774878977556
H           64.96529401303765       60.09325673018208       41.69023012481605
H           65.16247348804758       58.53842632797276       43.79019338070327
H           66.56136320355849       61.24211634024495       43.60386126530658
H           67.15713418648502       59.87812274379232       44.54673019732236
H           67.05166423387818       59.75359656781612       42.79370624437365
H           63.41121685873181       59.90568806108566       45.05184970553991
H           64.58491900655123       61.20323328078934       45.12475495455732
H           65.99484057418006       58.98874356959048       46.14670264923208
H           65.83718119235030       60.22320378821178       48.28331016786660
H           66.12503063993451       61.32059059812193       46.93470779424991
H           64.50967272068884       61.18689284202118       47.63233033996244
H           63.17115178146535       59.04007856966737       47.25704481268924
H           64.53136471350837       58.22255750077252       48.01734070951888
H           63.47885334230681       57.52695852751596       45.24565076016373
H           65.85296561223343       56.92067770785570       45.54767470594371
H           65.46989266551628       56.11762250035206       47.07045524267605
H           64.84944376557183       55.47823389032195       45.54888281592881
H           63.11088052627953       56.07788745552622       47.89283841814338
H           62.61892996823863       55.47859825424477       46.31084576778440
H           61.40542353686617       57.80271838883816       47.84542396587811
H           59.82389099576068       57.99152810065399       45.90894278678179
H           61.46037660322977       58.48170412669140       45.49338987189466
H           60.86142568214317       56.90409232605689       44.98498554149206
H           60.35419882782487       55.14037994564956       46.83106198479344
H           59.32529699119085       56.39462442115146       47.51044534026765
H           61.58274243773765       55.08092592040948       49.06600627910274
H           59.26092442485560       56.89332553573095       49.85909500677658
H           60.30517495665116       56.06917910913399       51.01175935506222
H           60.97811284971087       57.28925308789194       49.94117192039627
H           58.60387699660715       54.53345795731848       49.29503333099347
H           59.90075907052313       53.82696931213586       50.25547824417180
H           59.31331573607059       53.34902378444394       47.31467528540389
H           61.76434368762693       53.26908809300727       47.67375749918093
H           61.54629979955554       52.09073535716283       48.96544636633863
H           61.09865782536193       51.68187805673106       47.31257799616823
H           58.86185553851579       51.06969112819760       47.96726263186343
H           57.73539986311850       52.21983493665053       48.66090422320738
H           59.97799351590800       51.55922851744347       50.47971778673203
H           58.16884357402088       51.42940106868976       52.11018399398859
H           57.91963243696657       52.85697079227860       51.10835585729294
H           56.95910029078441       51.40516765491210       50.82887237497140
H           58.12311055525846       49.41502986024541       49.43027922036590
H           58.70194685229759       49.34971681992076       51.08576456537605
H           60.66325117863357       49.60906790673474       48.79395059874572
H           61.41589051869592       50.10547742530891       51.13537229933146
H           60.91421581580089       48.48916411375677       51.61893484129256
H           62.22605665331461       48.69826438622226       50.45945522950095
H           59.59650551478288       47.06250151454493       50.06791251650777
H           61.03644514302939       47.14102634780874       49.05466417673614
H           58.18232783424858       47.67160118203929       48.14682118567571
H           59.17478200840876       47.77990963008212       45.86396681832935
H           59.71500752567007       49.11834850464695       46.87106810833094
H           60.79009991372654       47.74913000176231       46.57145951679759
H           60.15679243820043       45.47161074971780       47.44284574144019
H           58.55422932127360       45.68489124319568       46.74393473061637
H           59.17711272000838       44.93865300488525       49.62292442495455
H           56.65376036973059       44.59791189718204       49.75093690780577
H           57.14971368127082       46.28317651874704       49.66187474025889
H           56.52017232366641       45.47217429152783       48.22608887190147
H           59.43375895508046       43.27348155964128       47.62983546786818
H           57.68154919580144       43.35318121995461       47.52678911325447
H           57.66112886729571       42.64786303699925       50.01474009682827
H           57.80833315948855       40.27515070208087       49.36232369209266
H           57.06845163686526       41.20247508448706       48.06511287279685
H           58.75429403083871       40.70391224149049       47.93456440996385
H           60.02225119905115       43.13839952346782       50.50050334335355
H           60.53467759980582       42.00522278264451       49.25143381041882
H           59.67205933946008       40.11914879040136       50.56456214390554
H           62.01542745546735       41.01689219945658       50.77525360506640
H           61.49751929110914       41.92678996719098       52.19740004269165
H           61.47025231408962       40.16150975019626       52.21084171717756
H           57.85226740844979       41.24166537808696       51.77345008386292
H           59.01320109963836       42.27417087942269       52.60871140295372
H           59.92284030179680       40.30447721303214       53.79867922703542
H           57.97347552499954       39.95709407566846       55.26440330134290
H           58.08341062297614       41.65056484044372       54.78406418623106
H           56.89770797293000       40.59276721291170       54.02399304847498
H           59.09192821102841       44.40661820120103       41.43723038212901
H           58.03822163282288       43.04875229158775       41.04427030796904
C           65.28410852371674       39.00446022450249       62.63774220920370
C           63.83687005007558       38.92975099280792       63.11944643101246
C           63.77065201716042       39.31353880434556       64.59729934443142
C           63.24627289288766       37.52755700748579       62.92372975078532
C           62.97893548330320       37.13041371904189       61.46367725582127
C           61.71280510918798       37.80492701709846       60.94105353252514
C           62.87889879656954       35.60125770368525       61.37486066716453
C           62.59740721582418       34.99962456967695       59.98852530179107
C           62.50306400297122       33.48093180227911       60.13855453601765
C           63.68532094618000       35.39444464675924       58.98371043867481
C           63.45396402840967       34.94613633985288       57.53396828010506
C           64.68944176935307       35.30115188102442       56.70472994370083
C           62.19094784962376       35.58380331799516       56.92235581733154
C           61.11791341718385       34.56762568293431       56.51566672423379
C           61.56991101742923       33.78205943741776       55.28436255548382
C           59.77686132701147       35.24836329438957       56.20874814791337
C           59.00778429978462       35.81780393402875       57.41076211244037
C           58.57508259546428       34.71280116897008       58.37083934853892
C           57.79461408608372       36.59153476791109       56.87359098856630
C           56.88448334201639       37.26437240974544       57.91255351008808
C           55.70799107588508       37.91245666608240       57.18273661299912
C           57.67241980687276       38.28827986856784       58.73649931622073
C           56.87566183303568       39.12823991286893       59.74486133244644
C           57.83023784548208       40.14279659518751       60.37487645276241
C           56.22427585838213       38.24359634155197       60.81197422645411
C           55.32060714319586       38.96110818526108       61.82470747236627
C           54.95815245642934       37.97554505787801       62.93834169018406
C           54.03273684385066       39.51777433104912       61.18996431034823
C           54.06674620422041       40.99822957866721       60.78771860219712
C           54.18210236495555       41.89176850248540       62.02292022119689
C           52.78737804885606       41.39925863221536       60.03653510713411
C           52.55271192011399       40.75169334465487       58.66629913789958
C           53.54619281259190       41.27871460747699       57.63129922834679
C           51.12504989753501       41.03626258217730       58.17405866136103
C           49.99912704914529       40.35167476630052       58.95813304095422
C           50.01052296628737       38.84023090068732       58.74027008950672
C           48.63719103697378       40.93394214297610       58.54832929921312
C           47.53476514083486       40.71348017086217       59.60060020651223
C           46.24289499758414       40.22689388744863       58.94341916069664
C           47.23401531307166       41.99168176889387       60.39567491743718
C           48.38672929359884       42.54827024937923       61.24463740637358
C           48.67409996057823       41.63910224013609       62.43725449459548
C           48.00518389935026       43.96437040984596       61.70168081381353
C           48.99319949365347       44.68050684535225       62.63459121864749
C           48.38476385237718       46.01835512938636       63.05534742026077
C           50.35311757319763       44.87144748696157       61.95161440545245
C           51.42045582847152       45.62161288266652       62.76335790221830
C           52.61644283075498       45.90575253017647       61.85444591908999
C           51.84472384352573       44.81226867796185       63.99538983094288
C           52.68704603148519       45.56784060663048       65.03536275339474
C           53.32108654011100       44.55795748888304       65.99181516274663
C           51.82397972822810       46.58128248288818       65.79631288249242
C           52.57522657364282       47.56189316474990       66.70998759995680
C           51.55937646095676       48.29716425044396       67.58488994313464
C           53.40134934548238       48.55558660006559       65.88513617906216
C           54.41090765910255       49.39830697638737       66.67910689150914
C           54.85867591144869       50.57559064555846       65.81336870777817
C           55.61002881502016       48.54500813502787       67.10523736533504
C           56.58427995418927       49.18651091734520       68.10575027003507
C           57.83733519706792       48.31597339263501       68.17481490184409
C           55.92810839565376       49.34078519963857       69.48373608680333
C           56.82292154739043       49.88547853440048       70.60668425232905
C           56.08280511100359       49.74961304534630       71.93798864155796
C           57.22356729807868       51.34796250757554       70.37301552868293
C           58.48992180159590       51.77394928471423       71.13289463359142
C           58.49099777943057       53.28802331076513       71.33852136100944
C           59.74240335548686       51.32918039319011       70.36873701900817
C           61.05444873435268       51.44294480676201       71.16674781163901
C           62.00374356690195       52.44270795472384       70.50434033800100
C           61.76267873598580       50.08812270381087       71.29736473688904
C           61.03439968154687       49.04236543450940       72.15128435967632
C           61.06503279449551       49.42290823243281       73.63046072020855
C           61.69058033715874       47.66561594829447       71.95893927654856
C           61.25815566684435       46.93067461554227       70.67937568289462
C           59.94102595512516       46.19618911307412       70.92220077807188
C           62.36389399468620       45.95936694080346       70.23801969749879
C           62.19689764974147       45.33743819213648       68.83941813719397
C           62.64596800240527       43.87484959906759       68.86115348460920
C           62.99982385185010       46.08631952723274       67.76506777048375
C           62.49317174856930       47.49171803819477       67.42779037591343
C           61.13140981823289       47.41640941624854       66.73926752939487
C           63.45982612807440       48.24113218472282       66.50162813363210
C           64.84755682730231       48.57374144203207       67.06379193549333
C           64.74842973737695       49.34621768198610       68.37902993211021
C           65.63532542203161       49.41811781060623       66.05033402547858
C           66.05692035012055       48.69654532926766       64.76214916932867
C           67.22684811159712       47.75194082777928       65.02617708625117
C           66.41143131821934       49.74699998115972       63.70269759643831
C           66.78074946210056       49.20047474261963       62.32401684568215
C           65.65928689706932       48.41270654063783       61.65815687213236
H           65.89250076655591       38.26646814706925       63.15652068967472
H           65.35768752552102       38.82140090740806       61.56891716192601
H           65.69870798668597       39.98942424335537       62.84027235189789
H           65.93973280050331       48.15559395626202       60.63910534592881
H           65.45063968086838       47.49085451869992       62.19401242199733
H           64.74558892621907       49.00335278780567       61.62455673437199
H           65.55760394492370       50.41888958462290       63.58489538469895
H           67.24917392094542       50.34355541354508       64.07442550407752
H           65.02045627564299       50.28274897548286       65.78681141139246
H           66.53796200496474       49.79942899225255       66.53384976583290
H           65.39582283744554       47.64593740412618       67.25075792778540
H           65.73624872757553       49.65657394198109       68.71265552008359
H           64.13878422746266       50.23800434048734       68.24888510769274
H           64.30857795329645       48.73693264524304       69.16367406895698
H           63.57917728462357       47.64350710705961       65.59678675082496
H           62.98309012949183       49.18167087239768       66.21179514764893
H           64.03720669971928       46.14326964807705       68.10019539704825
H           62.98806506517903       45.49598034134963       66.84449268610170
H           65.21182935632342       48.11167109422414       64.39170262302144
H           66.98660104156387       47.05787065461936       65.82786750016118
H           67.46710579937778       47.16839137615316       64.14090581279503