3864
 energy: -5104.231703187435 gnorm: 0.000741512614 xtb: 6.6.1 (8d0f1dd)
C           41.05135093479536       66.42043303895896       43.21289169528570
C           40.91637541558264       65.56749777680307       44.30231816211319
C           41.68198382331381       65.81849557840768       45.43506105285962
C           42.55315593015023       66.89263062544566       45.48563461693679
C           42.68091485132680       67.73183616218300       44.39262432385576
C           41.92945170813903       67.48903413707200       43.25496183735360
C           39.93210579797734       64.42470791407470       44.29412344033148
C           38.50607195377354       64.97510703133545       44.39416247697871
C           40.06268053376014       63.52224206136921       43.06128972482533
C           41.47011174749976       62.93736201864843       42.90234671998169
C           41.83981439025030       62.10590094597921       44.10909541788187
C           41.25318160881014       60.86473059945671       44.33307686984342
C           41.61443086563957       60.09233012952737       45.42198859440591
C           42.56326788364746       60.55728061368924       46.31594690791794
C           43.16056988709099       61.78610292372202       46.09975886276808
C           42.80233087904605       62.55168580352653       45.00455597919516
C           41.60335166599900       62.06449767477869       41.64626417407634
C           41.85461300717400       62.79894709260333       40.31873650111901
C           40.60952329648695       63.42570055246750       39.75072657906910
C           39.51922742664972       62.65106292762839       39.36948245351472
C           38.38352860834988       63.23238089645816       38.83744596310944
C           38.31666682121359       64.60584774057192       38.67699116695450
C           39.39658066673626       65.38973679415651       39.04696681635778
C           40.53286942060135       64.80218843678432       39.57499727311392
C           42.45171356685021       61.77955498522641       39.33763611232003
C           42.83646217079878       62.32328436914641       37.95485779787914
C           43.74165316206064       63.52160954430841       38.05781831130732
C           43.40278206061457       64.70951035613139       37.42204857775522
C           44.23011542031534       65.81640026779820       37.49490325657463
C           45.41438308329710       65.75274989749454       38.20963641718589
C           45.75940823925380       64.57712074816304       38.85407551999237
C           44.92871707090101       63.47415282315185       38.78048347641361
C           43.51322841392437       61.16821913360864       37.20207863487548
C           43.98821211079058       61.46942430676241       35.77417966772146
C           42.84477601443729       61.86506687796933       34.87761685927292
C           42.82048381136516       63.12113955904949       34.28567313225106
C           41.78880989903688       63.48813561327798       33.43935506572065
C           40.76452350747878       62.59807152840942       33.16564205032908
C           40.77726975817667       61.34218909374625       33.74744183697836
C           41.80619142651310       60.98403137788694       34.59764900730239
C           44.69665088264914       60.20912820774935       35.24912515165357
C           45.05954072621491       60.25507708973102       33.76207219041371
C           46.11014520339849       61.29401481311299       33.47135000685309
C           45.85119798456791       62.32245257669595       32.57502353852072
C           46.81327251155576       63.27441034020582       32.28659978118461
C           48.05405797953792       63.21428176287787       32.89671632693155
C           48.32183346734590       62.19706554606124       33.79616232227032
C           47.36006323077711       61.24561149418867       34.07801745627738
C           45.52256065874101       58.86523920852523       33.29048595469474
C           45.32843481921179       58.68886381346369       31.77905818275799
C           43.86757824960550       58.84849932147645       31.43086151867906
C           43.44814302355004       59.87600453910517       30.59542900099512
C           42.10646717696187       60.06163843302321       30.31098056478976
C           41.15745126972440       59.21673305455457       30.85889022108193
C           41.56178533171235       58.18060132203047       31.68242896145108
C           42.90303144371217       57.99916151006233       31.96149393077584
C           45.84484912878060       57.33106368550497       31.27432681495769
C           47.33978026052983       57.10625157384112       31.54195404207912
C           48.17126710760367       58.27321065682198       31.07255556252825
C           49.03017230494068       58.92648063172621       31.94685968285188
C           49.79690503398004       59.99757128637128       31.52349085983861
C           49.71356887209748       60.43806915281451       30.21533511059297
C           48.86400455940361       59.79301444232858       29.33199014738104
C           48.10447466852028       58.71894795800497       29.75704495456907
C           47.83239461589134       55.80400892071828       30.88772811081763
C           49.14255712831329       55.33283933279450       31.54351497024246
C           49.99189880029600       54.53334662124266       30.59093238066717
C           51.29738597633228       54.91640508515159       30.31360683276281
C           52.08989571697578       54.17738860126342       29.45237262020030
C           51.58583917824118       53.03513933882639       28.85581722432517
C           50.28481156726758       52.64196654507536       29.12238753212691
C           49.49648205918026       53.38569854542385       29.98098734378008
C           48.86055302912879       54.51238523896198       32.81472392749542
C           49.99331033545101       54.64528778225709       33.83471420729576
C           50.03837712128140       56.02693946431143       34.44303255504096
C           51.24225396160118       56.71501316568050       34.52525300579772
C           51.31929805179662       57.95183703900684       35.14297181038057
C           50.18675779884553       58.52382849316783       35.69732824465385
C           48.97974714534007       57.84870151337505       35.62244519622105
C           48.90659182804540       56.61354758493121       35.00081959664500
C           49.86450188007662       53.63820407843737       34.98800519591133
C           50.17300171892621       52.18003654548823       34.62076599604490
C           51.56358680287090       52.04128243909862       34.05357647257505
C           51.74439036377570       51.79676706320748       32.69727233256966
C           53.01210861394034       51.64907440714280       32.16282500930452
C           54.12677722657916       51.73846112710883       32.97899924051283
C           53.96240351365034       51.99207791826161       34.33020312666614
C           52.69356529601265       52.14601456588643       34.85814152844354
C           49.98699555243443       51.30777813235548       35.87017030514838
C           50.29302268568036       49.82908719139298       35.60524970868835
C           49.36928624727337       49.28701243806145       34.54690687686061
C           47.99297115087101       49.27152319467215       34.74331041419912
C           47.13696635564362       48.82388342847382       33.75558569341678
C           47.64607713827914       48.36713790219318       32.55154851652067
C           49.01494411028652       48.36123198295627       32.34816675054097
C           49.86779971639553       48.82091566519711       33.33719731253176
C           50.21126892224255       49.00183992531793       36.89881345935252
C           51.17063495619123       47.80368315307610       36.85881065250940
C           52.59021726416351       48.31089079790952       36.89521098700840
C           53.10508421134955       48.92163346711379       38.03332955081900
C           54.39170089714008       49.42892313416756       38.04587298244566
C           55.18814010569965       49.33618240585946       36.91699638805230
C           54.68980085216931       48.72777187270460       35.77880953587518
C           53.40257026262556       48.21770105484582       35.77145000682878
C           50.88828899310630       46.82372069914383       38.00940355273922
C           49.74990620837906       45.84627043236695       37.67972763409529
C           49.23349130663991       45.15916654857812       38.92190297562222
C           47.86954082653618       44.95660706743751       39.09528441164790
C           47.38001953028190       44.30158385078494       40.21155910299711
C           48.24577121093625       43.87128618353218       41.20161970362879
C           49.60616265898608       44.07812903721298       41.04924477363876
C           50.09440654789599       44.69183708193556       39.90811223966433
C           50.19786133035447       44.79621849603398       36.63510683157065
C           49.48270864706461       44.91877478557576       35.27564839163961
C           50.30441423201313       44.24538608811274       34.20823947831585
C           50.72750807190826       44.96187308615901       33.09585779723617
C           51.47718817566479       44.35545981091504       32.10243616373007
C           51.81414678085650       43.01695705229142       32.20587382479968
C           51.40553024811565       42.29481511547446       33.31517547128507
C           50.66419576495794       42.90503296135316       34.30962885883251
C           48.06386657631762       44.33960436680157       35.35279659014253
C           47.23656654718133       44.50076846410322       34.06163617397778
C           45.78600079729409       44.73511832512389       34.40430284948540
C           45.13034894614523       45.87137097737223       33.95042566087662
C           43.81044640119055       46.11717606181676       34.28466725326059
C           43.11840947687002       45.21583071384475       35.07379203266498
C           43.75672142875830       44.07004312316305       35.52037425438417
C           45.07996310569448       43.83388146576152       35.19327008828754
C           47.37677111032108       43.26688920929872       33.15800702062082
C           46.52549776247264       43.34552646795500       31.88577421964818
C           46.83924866276426       44.56023878438772       31.04820284602119
C           45.82204536840592       45.42011795714438       30.65222892561254
C           46.07726021574547       46.49053445801610       29.81300429586374
C           47.36326856283345       46.72064602255939       29.35460580746278
C           48.38800123847894       45.87942154095199       29.75421232715582
C           48.12821848542650       44.80965988186816       30.59165869390976
C           46.72784131986351       42.10315490104470       30.99872328109894
C           46.18169585696634       40.78972984923475       31.58222040409935
C           46.75000473017987       39.62821111557158       30.80601020063118
C           46.42455672996148       39.41978047050635       29.47064129258892
C           46.95967526184261       38.35564469360977       28.76768206411693
C           47.83518950634080       37.48013758168828       29.38787014535157
C           48.17284275520493       37.68061168239017       30.71500282889294
C           47.63449749283699       38.74635490992942       31.41438851505968
C           44.64978726568684       40.76405712732131       31.58355485462354
C           44.08129117316262       39.47775871821171       32.19956574551679
H           40.11966678722558       63.81239506705192       45.18287000485795
H           39.34471763155910       62.70617079590289       43.16750245220113
H           39.80213931638220       64.08011668915564       42.16010043503383
H           42.17914897296735       63.77035387681116       42.83019380625193
H           42.45503484695563       61.40341115975943       41.81781683364014
H           40.71389139127737       61.44241846093260       41.54028239156546
H           42.59445105687203       63.58982942387967       40.48731413121357
H           43.34698802687062       61.36002892653294       39.79837396440035
H           41.74139214001418       60.96258182398670       39.19575011746889
H           41.93006066282643       62.62119558530990       37.41546640299972
H           42.81071875794861       60.33287447272004       37.16846223277980
H           44.70381870989565       62.29963560052766       35.79893245122052
H           45.59690969955786       60.03792804624704       35.84079486972014
H           44.02865903398759       59.36108363024636       35.39730445761889
H           44.15245094033804       60.51897826191262       33.20773577741513
H           46.57387281168971       58.73647692900743       33.54139839568249
H           44.95278959880254       58.09641690114309       33.81379277636366
H           45.89382907009563       59.47986670482972       31.27285117131485
H           45.28453272275365       56.52570175800771       31.75217841977316
H           45.64912645417356       57.26935995340924       30.20111328374018
H           47.47918553605833       57.00204422237385       32.62091627311784
H           49.70813394576752       56.22869393604639       31.82308676079058
H           47.92178864534391       54.83606619084838       33.26361289778002
H           48.74030060697403       53.46333904298504       32.54225864645163
H           50.94331690840237       54.45798571355996       33.31950615664717
H           50.55742154154036       53.93745398645042       35.77354808956492
H           48.85235332894260       53.69310750221391       35.39307499620706
H           49.46126756363464       51.84443115423206       33.85875915735041
H           50.64111827013336       51.66714620944902       36.66487977362428
H           48.96124527928538       51.41719882194559       36.21919292936896
H           51.32050023867297       49.77454295116174       35.22961459417485
H           50.47112546287774       49.63389492328791       37.75031778834903
H           49.19216954971814       48.64295042080679       37.04762722173469
H           51.02680813293598       47.27668445211616       35.91033050925540
H           51.79835276727901       46.25610706070279       38.21370599971903
H           50.62995169865288       47.38369303409269       38.91141008474228
H           48.92047320950897       46.42287211634135       37.25819087084564
H           51.27348662970666       44.88723645777536       36.46631865384266
H           50.02813389444643       43.79194179674319       37.02996956914365
H           49.39624743376250       45.97997177414981       35.01258486672567
H           48.12471964279755       43.28160616985401       35.61284574678856
H           47.54261225366903       44.84712003388263       36.16646407902878
H           47.60446122145780       45.37547847406047       33.51243251583804
H           48.42502470124455       43.13719192084543       32.88823062163805
H           47.06914605056356       42.38570133888326       33.72449287984332
H           45.47245345123268       43.40142858356413       32.17913566188081
H           46.24820026788449       42.28359982954195       30.03314609324298
H           47.79805953522818       41.98044266830514       30.81200115705179
H           40.46621977377522       66.25130923013029       42.32018126646710
H           42.02321143194167       68.14065611229053       42.39692064765097
H           43.35809624260990       68.57320282446378       44.42989902937089
H           43.13041059372342       67.07679007267555       46.38080803723272
H           41.59729710867309       65.16468998225832       46.29209204689645
H           40.50348091913044       60.49337801055148       43.65041194646456
H           41.15782513605446       59.12509666478836       45.57744236201277
H           42.82601119228171       59.96459708486905       47.17851324279723
H           43.91118226513206       62.15720272980446       46.78064263955064
H           43.27937079437657       63.50765225366016       44.83935420644772
H           39.54618170296546       61.57798588319434       39.48476288559031
H           37.54707471443064       62.61156908754003       38.54851471074462
H           37.42913105188524       65.06359331148899       38.26353173038459
H           39.35360883774342       66.46310102921933       38.92134100972876
H           41.37565459887709       65.42104063268708       39.85390502292253
H           42.47780994797812       64.76731722127130       36.86371639761693
H           43.94992908909343       66.73208435924585       36.99226367248798
H           46.06197903315534       66.61657990611872       38.26487475722443
H           46.67878933295187       64.51619068888466       39.41868324357258
H           45.21749460645162       62.57267998035517       39.29914806024280
H           44.37937159011887       60.84806429748249       37.78274185981671
H           43.62353547521901       63.81809804516338       34.48560135337392
H           41.78736991551517       64.47082426571247       32.98757912801646
H           39.96142001923130       62.88143451254562       32.50015844856304
H           39.98224132967653       60.64139190823467       33.53760327001560
H           41.80172618570548       59.99863819260653       35.03765877799667
H           44.88049110196133       62.37964256516383       32.10029099276879
H           46.59414217853152       64.06658368319019       31.58376577539554
H           48.80612387164680       63.95734654365676       32.67161854457886
H           49.28645083142987       62.14436989365469       34.28066415665663
H           47.59415036791975       60.46035352362055       34.78095061299101
H           44.18372459846170       60.54425789750188       30.16735574171901
H           41.80105905366548       60.87161035896532       29.66325590916769
H           40.10906355895705       59.36533921444502       30.64322334419467
H           40.82932506263754       57.51012522061582       32.10767722036081
H           43.19742204960242       57.18008634882631       32.60053578249968
H           49.10693756974221       58.59556053054062       32.97235462299344
H           50.45962362870598       60.49092645215165       32.21923832353313
H           50.30619160607702       61.27816588785973       29.88235223002255
H           48.79421216587663       60.12970179726707       28.30685431872820
H           47.44709694910770       58.22748725520603       29.05392921873528
H           47.06893078114695       55.03121171122079       30.99301786005289
H           47.99318127718863       55.97000509628891       29.82039680066578
H           51.69796762699622       55.81020121485152       30.77277571756902
H           53.10247607589771       54.49478517712704       29.24666238764438
H           52.20182751499134       52.45527159746069       28.18262298858016
H           49.88474688477964       51.75122307920604       28.65794892389800
H           48.48191211180234       53.07031576477408       30.17770859166654
H           52.13266262586110       56.26883290239594       34.10454945467180
H           52.26767457551224       58.46872401721551       35.19342489894394
H           50.23993301946209       59.48452922883758       36.18997190552691
H           48.09333441311194       58.28514489188301       36.06122548688820
H           47.95624941075551       56.10123907609346       34.96021890405545
H           50.88432870576481       51.71835396152128       32.04583490832064
H           53.12608005879256       51.46209370954933       31.10354723309340
H           55.11797233333029       51.61878497331051       32.56442558897849
H           54.82621274637244       52.06582373260346       34.97676975588346
H           52.59250452617457       52.33748370584095       35.91476663620809
H           47.57572972557124       49.62443252056910       35.67427719381735
H           46.06948314673499       48.83507106790719       33.92597238108682
H           46.98676686592041       48.01776701443109       31.76989448388006
H           49.41392542167134       48.00115879093398       31.40955165678675
H           50.93621800149485       48.83288100928969       33.16295044505267
H           52.49063305424100       49.00127822087414       38.91882231376010
H           54.77428631213502       49.90652967943125       38.93589738091500
H           56.18894967762156       49.74237955385413       36.92203428091371
H           55.30036975442410       48.65516588652328       34.88804588067167
H           53.02284099281730       47.74405419520230       34.87425009273379
H           47.17188396907130       45.31905678125470       38.35379530005258
H           46.31850000281371       44.13000277070456       40.30546527616185
H           47.86439589985631       43.37751808196037       42.08473381281848
H           50.28580378405209       43.75594467413207       41.82396247192549
H           51.15926681917815       44.81356168111920       39.78079070991026
H           50.45807704863073       46.00500971934639       32.99912383751385
H           51.79699590602287       44.92788688205768       31.24204402291783
H           52.39302833511358       42.53966015648843       31.42721322956560
H           51.66617945054737       41.24936993023741       33.40378831709872
H           50.35916696828583       42.32537365509060       35.16825925872223
H           45.66713472455199       46.57160774277807       33.32932405824351
H           43.32818366235154       47.02088377374282       33.94043431661277
H           42.09291656891642       45.41342195231033       35.35258209818751
H           43.22329193125861       43.36282175404306       36.14053257514382
H           45.56813016900163       42.94266261010039       35.55867971658486
H           44.81550872357543       45.25085942317502       31.00949187704968
H           45.27216970919086       47.14717386344245       29.51237250751129
H           47.56583750900209       47.55302081068243       28.69557212562104
H           49.39581777845893       46.05259397655209       29.40252589781081
H           48.94053303527655       44.16283421670562       30.88880677492298
H           47.90108477118410       38.89436413239115       32.45160771967986
H           48.85702154705989       37.00373942626451       31.20681358153344
H           48.25218429994317       36.64825262104549       28.83903529912095
H           46.69359663382864       38.20740001540226       27.73071437361282
H           45.74500371225221       40.09411600523173       28.97066923301996
H           38.40337043380752       65.60919614653827       45.27245523199080
H           38.26089060754663       65.56784779163061       43.51502176488662
H           37.79148605564679       64.15844739524252       44.47382410346942
H           46.52472595742880       40.69390502543389       32.61616103180214
H           44.27392163518263       41.61946881067000       32.14502049985304
H           44.27565680215192       40.85856771314426       30.56274069610997
C           42.54985970443437       39.54403657599315       32.17664094387462
C           44.60167995693848       39.27195576930283       33.59915973164205
C           45.30120638391726       38.11748235018405       33.92765312908826
C           45.80363816122252       37.92810868895172       35.20393297040772
C           45.61442540816166       38.89637814706875       36.17402937739686
C           44.91455748388287       40.04855431748296       35.85942365490276
C           44.40988680499768       40.23300244301904       34.58532797658165
H           45.46002863131884       37.36009411721368       33.17160836132614
H           46.34817603580915       37.02379587890797       35.43848898364277
H           46.01345384161889       38.75948557353203       37.16878986471422
H           44.76571834256674       40.80099055180177       36.61990308140973
H           43.86746458088092       41.13724079211821       34.35155406448146
C           41.87903780659934       38.25635722548535       32.66636439903542
H           42.21352320347730       40.37670110492535       32.79647776144738
H           42.21765867417195       39.75049183373613       31.15677524285659
C           40.38874316328975       38.43444603413923       32.63738778653610
C           39.68259657574099       38.29303308953267       31.44882789892899
C           38.32163126905658       38.53598292058384       31.40147954227268
C           37.64625272790667       38.93152340641341       32.54445906451559
C           38.33788723477912       39.06287373429814       33.73586073977773
C           39.69786953430268       38.81134675734173       33.78112102117667
H           40.20573824130778       37.99117624325295       30.55204770272743
H           37.78546460968748       38.42263657085290       30.46961434362247
H           36.58571417585569       39.13579933951885       32.50245782620532
H           37.82005918921899       39.36070793211960       34.63566825992596
H           40.22797886128564       38.90542149051996       34.71831355221545
H           44.40151951004333       38.62837583063975       31.58431524397504
H           42.17509419082884       37.42666026929184       32.02014384552921
H           42.21228073836686       38.03708242963857       33.68302457939141
C           52.49467745982771       48.04713975962287       51.97906723519197
C           51.39717423516801       47.21615704385821       52.17187308557843
C           51.57186108150113       46.05506007139518       52.91494389528241
C           52.80776801001754       45.73006991717438       53.44527547702219
C           53.89547178022324       46.55971595172759       53.23797608723140
C           53.73307123639020       47.72024806295804       52.50216321324200
C           50.04105837482120       47.56351427598113       51.60794537206369
C           49.38511968564626       48.64407449533513       52.47231921605390
C           50.15728150002184       48.00811888551049       50.14430508137524
C           48.81469080271556       48.01681419315142       49.39465593436128
C           48.88533530574723       49.02942710570414       48.28081096904637
C           49.79013131447320       48.88562527409452       47.23491332412341
C           49.88856556555736       49.84779969989579       46.24761072038284
C           49.08824726692348       50.97616022850031       46.29749103292947
C           48.18369289080592       51.13325674652367       47.33300081470674
C           48.08358964222001       50.16254604565312       48.31411577505062
C           48.45109465831707       46.62480917857277       48.86902672437841
C           47.02129755819833       46.57824287203230       48.32494418144712
C           45.96561277952687       46.84876039198195       49.37076775423410
C           44.81486122978558       47.53376586272227       48.99590559709167
C           43.79850918697227       47.77657602868652       49.90077373027468
C           43.91779868661916       47.34570321318883       51.21112752861210
C           45.05173304995605       46.65227104571293       51.59575919220399
C           46.05911749932014       46.39562006255708       50.68129128153640
C           46.72599047073190       45.21619327996971       47.67520746952531
C           47.45115296874803       45.00702301198337       46.33157521137431
C           48.25840259717980       43.73340072821772       46.34522594526514
C           47.65744340868174       42.51285666681935       46.63339318676208
C           48.39991295387793       41.34683974052770       46.65762602850380
C           49.75880256701804       41.37676749512390       46.39205389569276
C           50.36240896644792       42.58277250911944       46.08002179259047
C           49.61477886901978       43.74756140758796       46.05628061898255
C           46.47855902073840       44.92980001185343       45.14659383259304
C           45.67709522053446       46.20843812532012       44.84514204562120
C           44.56222708971730       45.80879994053061       43.91134209021614
C           43.23851902056142       45.83324558064064       44.33090744101500
C           42.22711967200440       45.36429454184354       43.50970652065801
C           42.52462278007538       44.86398896118583       42.25484874522134
C           43.83677035330768       44.86595353648710       41.81506878215751
C           44.84429549244791       45.33545624188549       42.63539906320487
C           46.56243334842311       47.31604576134349       44.25766767035538
C           45.74902759457481       48.48227655958188       43.67987736574941
C           44.82849852446128       49.08647782925689       44.70951121413086
C           43.45456812106801       49.10133116546177       44.50292691058821
C           42.59735715019911       49.64313174831524       45.44415322734275
C           43.10488929877038       50.19355367587526       46.60809558050193
C           44.47389500441937       50.21090011690330       46.81285863675190
C           45.32708332412852       49.65895665696834       45.87358103178653
C           46.67201151561520       49.56859331900779       43.10938863412790
C           47.38905048811625       49.13698227725772       41.81328217495374
C           48.86413667295999       48.92937544849011       42.05085069594404
C           49.47048325582860       47.71665243412105       41.75489563921717
C           50.82508531891806       47.52934543517519       41.97193976338093
C           51.59906911584098       48.55702641336706       42.47902708575911
C           51.00852365249725       49.77538789307241       42.77124114852895
C           49.65385634566633       49.95620950599693       42.55875402933100
C           47.20650465873865       50.16595746704660       40.68470403626568
C           45.76211040628579       50.25249942561006       40.17612079801818
C           45.33932041001883       48.99262302024263       39.46228134174493
C           44.22564481711800       48.28272198286094       39.89234356058089
C           43.78542580156755       47.16126765535237       39.21109997377210