      -----------------------------------------------------------      
     |                   =====================                   |     
     |                           x T B                           |     
     |                   =====================                   |     
     |                         S. Grimme                         |     
     |          Mulliken Center for Theoretical Chemistry        |     
     |                    University of Bonn                     |     
      -----------------------------------------------------------      

   * xtb version 6.6.1 (8d0f1dd) compiled by 'stahn@M-Bot' on 2023-08-01

   xtb is free software: you can redistribute it and/or modify it under
   the terms of the GNU Lesser General Public License as published by
   the Free Software Foundation, either version 3 of the License, or
   (at your option) any later version.
   
   xtb is distributed in the hope that it will be useful,
   but WITHOUT ANY WARRANTY; without even the implied warranty of
   MERCHANTABILITY or FITNESS FOR A PARTICULAR PURPOSE.  See the
   GNU Lesser General Public License for more details.
   
   Cite this work as:
   * C. Bannwarth, E. Caldeweyher, S. Ehlert, A. Hansen, P. Pracht,
     J. Seibert, S. Spicher, S. Grimme, WIREs Comput. Mol. Sci., 2020, 11,
     e01493. DOI: 10.1002/wcms.1493
   
   for GFN2-xTB:
   * C. Bannwarth, S. Ehlert and S. Grimme., J. Chem. Theory Comput., 2019,
     15, 1652-1671. DOI: 10.1021/acs.jctc.8b01176
   for GFN1-xTB:
   * S. Grimme, C. Bannwarth, P. Shushkov, J. Chem. Theory Comput., 2017,
     13, 1989-2009. DOI: 10.1021/acs.jctc.7b00118
   for GFN0-xTB:
   * P. Pracht, E. Caldeweyher, S. Ehlert, S. Grimme, ChemRxiv, 2019, preprint.
     DOI: 10.26434/chemrxiv.8326202.v1
   for GFN-FF:
   * S. Spicher and S. Grimme, Angew. Chem. Int. Ed., 2020, 59, 15665-15673.
     DOI: 10.1002/anie.202004239
   
   for ALPB and GBSA implicit solvation:
   * S. Ehlert, M. Stahn, S. Spicher, S. Grimme, J. Chem. Theory Comput.,
     2021, 17, 4250-4261. DOI: 10.1021/acs.jctc.1c00471
   
   for DFT-D4:
   * E. Caldeweyher, C. Bannwarth and S. Grimme, J. Chem. Phys., 2017,
     147, 034112. DOI: 10.1063/1.4993215
   * E. Caldeweyher, S. Ehlert, A. Hansen, H. Neugebauer, S. Spicher,
     C. Bannwarth and S. Grimme, J. Chem. Phys., 2019, 150, 154122.
     DOI: 10.1063/1.5090222
   * E. Caldeweyher, J.-M. Mewes, S. Ehlert and S. Grimme, Phys. Chem. Chem. Phys.
     2020, 22, 8499-8512. DOI: 10.1039/D0CP00502A
   
   for sTDA-xTB:
   * S. Grimme and C. Bannwarth, J. Chem. Phys., 2016, 145, 054103.
     DOI: 10.1063/1.4959605
   
   in the mass-spec context:
   * V. Asgeirsson, C. Bauer and S. Grimme, Chem. Sci., 2017, 8, 4879.
     DOI: 10.1039/c7sc00601b
   * J. Koopman and S. Grimme, ACS Omega 2019, 4, 12, 15120-15133.
     DOI: 10.1021/acsomega.9b02011
   
   for metadynamics refer to:
   * S. Grimme, J. Chem. Theory Comput., 2019, 155, 2847-2862
     DOI: 10.1021/acs.jctc.9b00143
   
   for SPH calculations refer to:
   * S. Spicher and S. Grimme, J. Chem. Theory Comput., 2021, 17, 1701-1714
     DOI: 10.1021/acs.jctc.0c01306
   
   with help from (in alphabetical order)
   P. Atkinson, C. Bannwarth, F. Bohle, G. Brandenburg, E. Caldeweyher
   M. Checinski, S. Dohm, S. Ehlert, S. Ehrlich, I. Gerasimov, C. Hölzer
   A. Katbashev, J. Koopman, C. Lavigne, S. Lehtola, F. März, M. Müller,
   F. Musil, H. Neugebauer, J. Pisarek, C. Plett, P. Pracht, F. Pultar,
   J. Seibert, P. Shushkov, S. Spicher, M. Stahn, M. Steiner, T. Strunk,
   J. Stückrath, T. Rose, and J. Unsleber
   
 * started run on 2024/10/04 at 03:35:54.171     

           -------------------------------------------------
          |                Calculation Setup                |
           -------------------------------------------------

          program call               : /home/abt-grimme/AK-bin/xtb input.xyz --input input.inp --opt
          hostname                   : boar071.thch.uni-bonn.de
          coordinate file            : input.xyz
          omp threads                :                     8

   ID    Z sym.   atoms
    1    6 C      1-120, 363-482, 725-844, 1087-1206, 1449-1568, 1811-1930,
                  2173-2292, 2535-2654, 2897-3016
    2    1 H      121-362, 483-724, 845-1086, 1207-1448, 1569-1810,
                  1931-2172, 2293-2534, 2655-2896, 3017-3258

molecular fragmentation (1/2 indicates fragments):
111111111111111111111111111111111111111111111111111111111111111111111111
111111111111111111111111111111111111111111111111111111111111111111111111
111111111111111111111111111111111111111111111111111111111111111111111111
111111111111111111111111111111111111111111111111111111111111111111111111
111111111111111111111111111111111111111111111111111111111111111111111111
112222222222222222222222222222222222222222222222222222222222222222222222
222222222222222222222222222222222222222222222222222222222222222222222222
222222222222222222222222222222222222222222222222222222222222222222222222
222222222222222222222222222222222222222222222222222222222222222222222222
222222222222222222222222222222222222222222222222222222222222222222222222
222222222222222222222222222222222222222222222222222222222222222222222222
222222222222222222222222222222222222222222222222222222222222222222222222
222222222222222222222222222222222222222222222222222222222222222222222222
222222222222222222222222222222222222222222222222222222222222222222222222
222222222222222222222222222222222222222222222222222222222222222222222222
222222222222222222222222222222222222222222222222222222222222222222222222
222222222222222222222222222222222222222222222222222222222222222222222222
222222222222222222222222222222222222222222222222222222222222222222222222
222222222222222222222222222222222222222222222222222222222222222222222222
222222222222222222222222222222222222222222222222222222222222222222222222
222222222222222222222222222222222222222222222222222222222222222222222222
222222222222222222222222222222222222222222222222222222222222222222222222
222222222222222222222222222222222222222222222222222222222222222222222222
222222222222222222222222222222222222222222222222222222222222222222222222
222222222222222222222222222222222222222222222222222222222222222222222222
222222222222222222222222222222222222222222222222222222222222222222222222
222222222222222222222222222222222222222222222222222222222222222222222222
222222222222222222222222222222222222222222222222222222222222222222222222
222222222222222222222222222222222222222222222222222222222222222222222222
222222222222222222222222222222222222222222222222222222222222222222222222
222222222222222222222222222222222222222222222222222222222222222222222222
222222222222222222222222222222222222222222222222222222222222222222222222
222222222222222222222222222222222222222222222222222222222222222222222222
222222222222222222222222222222222222222222222222222222222222222222222222
222222222222222222222222222222222222222222222222222222222222222222222222
222222222222222222222222222222222222222222222222222222222222222222222222
222222222222222222222222222222222222222222222222222222222222222222222222
222222222222222222222222222222222222222222222222222222222222222222222222
222222222222222222222222222222222222222222222222222222222222222222222222
222222222222222222222222222222222222222222222222222222222222222222222222
222222222222222222222222222222222222222222222222222222222222222222222222
222222222222222222222222222222222222222222222222222222222222222222222222
222222222222222222222222222222222222222222222222222222222222222222222222
222222222222222222222222222222222222222222222222222222222222222222222222
222222222222222222222222222222222222222222222222222222222222222222222222
222222222222222222
# atoms in fragment 1/2:   362  2896
 fragment masses (1/2) :     1685.21    13481.68
CMA distance (Bohr)    :  18.306
constraining FC (au)   :  0.0500

           -------------------------------------------------
          |                 G F N 2 - x T B                 |
           -------------------------------------------------

        Reference                      10.1021/acs.jctc.8b01176
      * Hamiltonian:
        H0-scaling (s, p, d)           1.850000    2.230000    2.230000
        zeta-weighting                 0.500000
      * Dispersion:
        s8                             2.700000
        a1                             0.520000
        a2                             5.000000
        s9                             5.000000
      * Repulsion:
        kExp                           1.500000    1.000000
        rExp                           1.000000
      * Coulomb:
        alpha                          2.000000
        third order                    shell-resolved
        anisotropic                    true
        a3                             3.000000
        a5                             4.000000
        cn-shift                       1.200000
        cn-exp                         4.000000
        max-rad                        5.000000


          ...................................................
          :                      SETUP                      :
          :.................................................:
          :  # basis functions                6498          :
          :  # atomic orbitals                6498          :
          :  # shells                         4338          :
          :  # electrons                      6498          :
          :  max. iterations                   250          :
          :  Hamiltonian                  GFN2-xTB          :
          :  restarted?                      false          :
          :  GBSA solvation                  false          :
          :  PC potential                    false          :
          :  electronic temp.          300.0000000     K    :
          :  accuracy                    1.0000000          :
          :  -> integral cutoff          0.2500000E+02      :
          :  -> integral neglect         0.1000000E-07      :
          :  -> SCF convergence          0.1000000E-05 Eh   :
          :  -> wf. convergence          0.1000000E-03 e    :
          :  Broyden damping             0.4000000          :
          ...................................................

 iter      E             dE          RMSdq      gap      omega  full diag
   1  -3473.3914006 -0.347339E+04  0.243E+00   11.36       0.0  T
   2  -3478.5177257 -0.512633E+01  0.134E+00   11.49       1.0  T
   3  -3478.7215481 -0.203822E+00  0.597E-01   11.45       1.0  T
   4  -3478.7420096 -0.204615E-01  0.756E-02   11.49       1.0  T
   5  -3478.7430203 -0.101073E-02  0.393E-02   11.50       1.0  T
   6  -3478.7432286 -0.208268E-03  0.635E-03   11.50       1.0  T
   7  -3478.7432444 -0.157688E-04  0.125E-03   11.50       1.4  T
   8  -3478.7432455 -0.108977E-05  0.389E-04   11.50       4.5  T
   9  -3478.7432455 -0.653044E-07  0.142E-04   11.50      12.3  T
  10  -3478.7432455 -0.384534E-08  0.421E-05   11.50      41.6  T

   *** convergence criteria satisfied after 10 iterations ***

         #    Occupation            Energy/Eh            Energy/eV
      -------------------------------------------------------------
         1        2.0000           -0.6245640             -16.9953
       ...           ...                  ...                  ...
      3243        2.0000           -0.4023090             -10.9474
      3244        2.0000           -0.4020006             -10.9390
      3245        2.0000           -0.4018438             -10.9347
      3246        2.0000           -0.4018200             -10.9341
      3247        2.0000           -0.4015726             -10.9273
      3248        2.0000           -0.4012559             -10.9187
      3249        2.0000           -0.4011027             -10.9146 (HOMO)
      3250                          0.0215753               0.5871 (LUMO)
      3251                          0.0220706               0.6006
      3252                          0.0240222               0.6537
      3253                          0.0249594               0.6792
      3254                          0.0250713               0.6822
       ...                                ...                  ...
      6498                          0.3837394              10.4421
      -------------------------------------------------------------
                  HL-Gap            0.4226779 Eh           11.5017 eV
             Fermi-level           -0.1897637 Eh           -5.1637 eV

 SCC (total)                   0 d,  0 h, 13 min, 57.023 sec
 SCC setup                      ...        0 min,  0.435 sec (  0.052%)
 Dispersion                     ...        0 min,  3.678 sec (  0.439%)
 classical contributions        ...        0 min,  0.132 sec (  0.016%)
 integral evaluation            ...        0 min,  6.344 sec (  0.758%)
 iterations                     ...        9 min, 49.143 sec ( 70.385%)
 molecular gradient             ...        3 min, 48.870 sec ( 27.343%)
 printout                       ...        0 min,  8.421 sec (  1.006%)

         :::::::::::::::::::::::::::::::::::::::::::::::::::::
         ::                     SUMMARY                     ::
         :::::::::::::::::::::::::::::::::::::::::::::::::::::
         :: total energy           -3427.497791647339 Eh    ::
         :: gradient norm              0.018190003858 Eh/a0 ::
         :: HOMO-LUMO gap             11.501652440963 eV    ::
         ::.................................................::
         :: SCC energy             -3478.743245535107 Eh    ::
         :: -> isotropic ES            0.420667148320 Eh    ::
         :: -> anisotropic ES          1.114170935557 Eh    ::
         :: -> anisotropic XC          1.948876211644 Eh    ::
         :: -> dispersion             -4.034278044660 Eh    ::
         :: repulsion energy          50.609246982727 Eh    ::
         :: add. restraining           0.000000000000 Eh    ::
         :: total charge              -0.000000000012 e     ::
         :::::::::::::::::::::::::::::::::::::::::::::::::::::

      ----------------------------------------------------------- 
     |              Fast Inertial Relaxation Engine              |
      ----------------------------------------------------------- 

          ...................................................
          :                      SETUP                      :
          :.................................................:
          :   energy convergence        0.5000000E-05 Eh    :
          :   grad. convergence         0.1000000E-02 Eh/a0 :
          :   optimization log               true           :
          :   writing optlog all                1     steps :
          :   Hessian reset                    20     steps :
          :   time step scaling                 5     steps :
          :   maximium step len.        1.0000000     a0    :
          :   initial time step         0.2500000     fs    :
          :   maximum time step         1.2500000     fs    :
          :   power reset thr           0.0000000     au    :
          :   alpha parameter           0.1000000           :
          :   BFGS update                   false           :
          :   preconditioning               false           :
          ...................................................

........................................................................
.............................. CYCLE    1 ..............................
........................................................................

 iter      E             dE          RMSdq      gap      omega  full diag
   1  -3478.7467910 -0.347875E+04  0.260E-04   11.50       0.0  T
   2  -3478.7467910 -0.279470E-07  0.149E-04   11.50      11.8  T
   3  -3478.7467910 -0.631189E-09  0.487E-05   11.50      36.0  T
     SCC iter.                  ...        2 min, 59.599 sec
     gradient                   ...        3 min, 48.661 sec
 * total energy  : -3427.4978288 Eh     change    :  -0.3719300E-04 Eh
   gradient norm :     0.0167210 Eh/a0  converged?    E=F G=F D=F
   time step     :     0.2500000 fs     power     :   0.1891571E-08
   step length   :     0.0021318 a0     speed     :   0.2062660E-03

........................................................................
.............................. CYCLE    2 ..............................
........................................................................

 iter      E             dE          RMSdq      gap      omega  full diag
   1  -3478.7519510 -0.347875E+04  0.377E-04   11.50       0.0  T
   2  -3478.7519510 -0.586988E-07  0.215E-04   11.50       8.1  T
   3  -3478.7519510 -0.129785E-08  0.704E-05   11.50      24.9  T
     SCC iter.                  ...        2 min, 55.110 sec
     gradient                   ...        3 min, 48.349 sec
 * total energy  : -3427.4978776 Eh     change    :  -0.4877024E-04 Eh
   gradient norm :     0.0146084 Eh/a0  converged?    E=F G=F D=F
   time step     :     0.2500000 fs     power     :   0.2409200E-08
   step length   :     0.0031115 a0     speed     :   0.3010525E-03

........................................................................
.............................. CYCLE    3 ..............................
........................................................................

 iter      E             dE          RMSdq      gap      omega  full diag
   1  -3478.7584986 -0.347876E+04  0.480E-04   11.50       0.0  T
   2  -3478.7584986 -0.943810E-07  0.274E-04   11.50       6.4  T
   3  -3478.7584987 -0.207729E-08  0.892E-05   11.50      19.6  T
     SCC iter.                  ...        2 min, 56.327 sec
     gradient                   ...        3 min, 49.350 sec
 * total energy  : -3427.4979302 Eh     change    :  -0.5257919E-04 Eh
   gradient norm :     0.0119713 Eh/a0  converged?    E=F G=F D=F
   time step     :     0.2500000 fs     power     :   0.2506165E-08
   step length   :     0.0039664 a0     speed     :   0.3837664E-03

........................................................................
.............................. CYCLE    4 ..............................
........................................................................

 iter      E             dE          RMSdq      gap      omega  full diag
   1  -3478.7661409 -0.347877E+04  0.562E-04   11.50       0.0  T
   2  -3478.7661410 -0.128060E-06  0.321E-04   11.50       5.5  T
   3  -3478.7661410 -0.279715E-08  0.104E-04   11.50      16.9  T
     SCC iter.                  ...        2 min, 54.585 sec
     gradient                   ...        3 min, 49.244 sec
 * total energy  : -3427.4979786 Eh     change    :  -0.4837889E-04 Eh
   gradient norm :     0.0090006 Eh/a0  converged?    E=F G=F D=F
   time step     :     0.2500000 fs     power     :   0.2180045E-08
   step length   :     0.0046632 a0     speed     :   0.4511856E-03

........................................................................
.............................. CYCLE    5 ..............................
........................................................................

 iter      E             dE          RMSdq      gap      omega  full diag
   1  -3478.7745169 -0.347877E+04  0.620E-04   11.50       0.0  T
   2  -3478.7745170 -0.152796E-06  0.355E-04   11.50       4.9  T
   3  -3478.7745170 -0.334330E-08  0.113E-04   11.50      15.5  T
     SCC iter.                  ...        2 min, 55.754 sec
     gradient                   ...        3 min, 49.518 sec
 * total energy  : -3427.4980159 Eh     change    :  -0.3728792E-04 Eh
   gradient norm :     0.0060518 Eh/a0  converged?    E=F G=F D=F
   time step     :     0.2500000 fs     power     :   0.1506967E-08
   step length   :     0.0051734 a0     speed     :   0.5005494E-03

........................................................................
.............................. CYCLE    6 ..............................
........................................................................

 iter      E             dE          RMSdq      gap      omega  full diag
   1  -3478.7840615 -0.347878E+04  0.719E-04   11.50       0.0  T
   2  -3478.7840617 -0.195902E-06  0.411E-04   11.50       4.3  T
   3  -3478.7840617 -0.451200E-08  0.127E-04   11.50      13.8  T
     SCC iter.                  ...        2 min, 59.166 sec
     gradient                   ...        3 min, 48.971 sec
 * total energy  : -3427.4980386 Eh     change    :  -0.2274100E-04 Eh
   gradient norm :     0.0039812 Eh/a0  converged?    E=F G=F D=F
   time step     :     0.2750000 fs     power     :   0.5470801E-09
   step length   :     0.0060415 a0     speed     :   0.5314037E-03

........................................................................
.............................. CYCLE    7 ..............................
........................................................................

 iter      E             dE          RMSdq      gap      omega  full diag
   1  -3478.7937474 -0.347879E+04  0.764E-04   11.50       0.0  T
   2  -3478.7937476 -0.196020E-06  0.439E-04   11.50       4.0  T
   3  -3478.7937476 -0.466889E-08  0.124E-04   11.50      14.2  T
     SCC iter.                  ...        2 min, 52.201 sec
     gradient                   ...        3 min, 49.251 sec
 * total energy  : -3427.4980419 Eh     change    :  -0.3334157E-05 Eh
   gradient norm :     0.0050513 Eh/a0  converged?    E=T G=F D=F
   time step     :     0.3025000 fs     power     :  -0.3764083E-09
   step length   :     0.0065187 a0     speed     :   0.5212558E-03

........................................................................
.............................. CYCLE    8 ..............................
........................................................................
 * reset velocities

 iter      E             dE          RMSdq      gap      omega  full diag
   1  -3478.7936268 -0.347879E+04  0.134E-05   11.50       0.0  T
   2  -3478.7936268 -0.139153E-09  0.712E-06   11.50     246.0  T
   3  -3478.7936268 -0.127329E-10  0.324E-06   11.50     541.1  T
     SCC iter.                  ...        2 min, 58.966 sec
     gradient                   ...        3 min, 49.400 sec
 * total energy  : -3427.4980425 Eh     change    :  -0.5455186E-06 Eh
   gradient norm :     0.0049903 Eh/a0  converged?    E=T G=F D=T
   time step     :     0.1512500 fs     power     :   0.4743264E-10
   step length   :     0.0001083 a0     speed     :   0.1732691E-04

........................................................................
.............................. CYCLE    9 ..............................
........................................................................

 iter      E             dE          RMSdq      gap      omega  full diag
   1  -3478.7933875 -0.347879E+04  0.268E-05   11.50       0.0  T
   2  -3478.7933875 -0.231466E-09  0.157E-05   11.50     111.9  T
   3  -3478.7933875 -0.272848E-11  0.388E-06   11.50     451.9  T
     SCC iter.                  ...        2 min, 56.117 sec
     gradient                   ...        3 min, 48.638 sec
 * total energy  : -3427.4980435 Eh     change    :  -0.1062961E-05 Eh
   gradient norm :     0.0048764 Eh/a0  converged?    E=T G=F D=T
   time step     :     0.1512500 fs     power     :   0.9212816E-10
   step length   :     0.0002154 a0     speed     :   0.3444451E-04

........................................................................
.............................. CYCLE   10 ..............................
........................................................................

 iter      E             dE          RMSdq      gap      omega  full diag
   1  -3478.7930347 -0.347879E+04  0.394E-05   11.50       0.0  T
   2  -3478.7930347 -0.372438E-09  0.230E-05   11.50      76.2  T
   3  -3478.7930347 -0.436557E-10  0.573E-06   11.50     305.6  T
     SCC iter.                  ...        2 min, 51.776 sec
     gradient                   ...        3 min, 49.786 sec
 * total energy  : -3427.4980451 Eh     change    :  -0.1546462E-05 Eh
   gradient norm :     0.0047104 Eh/a0  converged?    E=T G=F D=T
   time step     :     0.1512500 fs     power     :   0.1321531E-09
   step length   :     0.0003200 a0     speed     :   0.5116969E-04

........................................................................
.............................. CYCLE   11 ..............................
........................................................................

 iter      E             dE          RMSdq      gap      omega  full diag
   1  -3478.7925764 -0.347879E+04  0.517E-05   11.50       0.0  T
   2  -3478.7925764 -0.691671E-09  0.302E-05   11.50      58.1  T
   3  -3478.7925764  0.145519E-10  0.747E-06   11.50     234.4  T
     SCC iter.                  ...        2 min, 56.734 sec
     gradient                   ...        3 min, 48.380 sec
 * total energy  : -3427.4980470 Eh     change    :  -0.1943416E-05 Eh
   gradient norm :     0.0044973 Eh/a0  converged?    E=T G=F D=T
   time step     :     0.1512500 fs     power     :   0.1658463E-09
   step length   :     0.0004209 a0     speed     :   0.6731953E-04

........................................................................
.............................. CYCLE   12 ..............................
........................................................................

 iter      E             dE          RMSdq      gap      omega  full diag
   1  -3478.7920232 -0.347879E+04  0.632E-05   11.50       0.0  T
   2  -3478.7920232 -0.940418E-09  0.369E-05   11.50      47.4  T
   3  -3478.7920232 -0.504770E-10  0.905E-06   11.50     193.6  T
     SCC iter.                  ...        2 min, 58.453 sec
     gradient                   ...        3 min, 48.565 sec
 * total energy  : -3427.4980493 Eh     change    :  -0.2256637E-05 Eh
   gradient norm :     0.0042444 Eh/a0  converged?    E=T G=F D=T
   time step     :     0.1512500 fs     power     :   0.1919722E-09
   step length   :     0.0005173 a0     speed     :   0.8272278E-04

........................................................................
.............................. CYCLE   13 ..............................
........................................................................

 iter      E             dE          RMSdq      gap      omega  full diag
   1  -3478.7913888 -0.347879E+04  0.739E-05   11.50       0.0  T
   2  -3478.7913888 -0.133423E-08  0.432E-05   11.50      40.5  T
   3  -3478.7913888 -0.345608E-10  0.104E-05   11.50     168.0  T
     SCC iter.                  ...        2 min, 57.282 sec
     gradient                   ...        3 min, 48.792 sec
 * total energy  : -3427.4980518 Eh     change    :  -0.2483595E-05 Eh
   gradient norm :     0.0039612 Eh/a0  converged?    E=T G=F D=T
   time step     :     0.1512500 fs     power     :   0.2098236E-09
   step length   :     0.0006079 a0     speed     :   0.9722398E-04

........................................................................
.............................. CYCLE   14 ..............................
........................................................................

 iter      E             dE          RMSdq      gap      omega  full diag
   1  -3478.7906119 -0.347879E+04  0.930E-05   11.50       0.0  T
   2  -3478.7906119 -0.206819E-08  0.545E-05   11.50      32.2  T
   3  -3478.7906119 -0.700311E-10  0.129E-05   11.50     135.9  T
     SCC iter.                  ...        2 min, 56.878 sec
     gradient                   ...        3 min, 50.768 sec
 * total energy  : -3427.4980547 Eh     change    :  -0.2895923E-05 Eh
   gradient norm :     0.0036272 Eh/a0  converged?    E=T G=F D=T
   time step     :     0.1663750 fs     power     :   0.2197059E-09
   step length   :     0.0007706 a0     speed     :   0.1120386E-03

........................................................................
.............................. CYCLE   15 ..............................
........................................................................

 iter      E             dE          RMSdq      gap      omega  full diag
   1  -3478.7896922 -0.347879E+04  0.115E-04   11.50       0.0  T
   2  -3478.7896922 -0.298269E-08  0.672E-05   11.50      26.1  T
   3  -3478.7896922 -0.213731E-10  0.154E-05   11.50     113.6  T
     SCC iter.                  ...        3 min,  0.076 sec
     gradient                   ...        3 min, 49.524 sec
 * total energy  : -3427.4980579 Eh     change    :  -0.3236607E-05 Eh
   gradient norm :     0.0032571 Eh/a0  converged?    E=T G=F D=T
   time step     :     0.1830125 fs     power     :   0.2194859E-09
   step length   :     0.0009593 a0     speed     :   0.1267923E-03

........................................................................
.............................. CYCLE   16 ..............................
........................................................................

 iter      E             dE          RMSdq      gap      omega  full diag
   1  -3478.7886487 -0.347879E+04  0.138E-04   11.50       0.0  T
   2  -3478.7886487 -0.407181E-08  0.812E-05   11.50      21.6  T
   3  -3478.7886487 -0.141426E-09  0.178E-05   11.50      98.4  T
     SCC iter.                  ...        2 min, 56.307 sec
     gradient                   ...        3 min, 48.732 sec
 * total energy  : -3427.4980613 Eh     change    :  -0.3445529E-05 Eh
   gradient norm :     0.0028863 Eh/a0  converged?    E=T G=F D=F
   time step     :     0.2013138 fs     power     :   0.2081619E-09
   step length   :     0.0011733 a0     speed     :   0.1409742E-03

........................................................................
.............................. CYCLE   17 ..............................
........................................................................

 iter      E             dE          RMSdq      gap      omega  full diag
   1  -3478.7875345 -0.347879E+04  0.163E-04   11.50       0.0  T
   2  -3478.7875345 -0.507771E-08  0.958E-05   11.50      18.3  T
   3  -3478.7875345 -0.113232E-09  0.196E-05   11.50      89.6  T
     SCC iter.                  ...        2 min, 53.591 sec
     gradient                   ...        3 min, 49.516 sec
 * total energy  : -3427.4980648 Eh     change    :  -0.3498354E-05 Eh
   gradient norm :     0.0025797 Eh/a0  converged?    E=T G=F D=F
   time step     :     0.2214451 fs     power     :   0.1871524E-09
   step length   :     0.0014090 a0     speed     :   0.1539062E-03

........................................................................
.............................. CYCLE   18 ..............................
........................................................................

 iter      E             dE          RMSdq      gap      omega  full diag
   1  -3478.7864540 -0.347879E+04  0.186E-04   11.50       0.0  T
   2  -3478.7864540 -0.562795E-08  0.110E-04   11.50      16.0  T
   3  -3478.7864540 -0.995897E-10  0.200E-05   11.50      87.4  T
     SCC iter.                  ...        2 min, 58.609 sec
     gradient                   ...        3 min, 49.324 sec
 * total energy  : -3427.4980682 Eh     change    :  -0.3391970E-05 Eh
   gradient norm :     0.0024176 Eh/a0  converged?    E=T G=F D=F
   time step     :     0.2435896 fs     power     :   0.1616277E-09
   step length   :     0.0016590 a0     speed     :   0.1647423E-03

........................................................................
.............................. CYCLE   19 ..............................
........................................................................

 iter      E             dE          RMSdq      gap      omega  full diag
   1  -3478.7855709 -0.347879E+04  0.206E-04   11.50       0.0  T
   2  -3478.7855709 -0.535238E-08  0.122E-04   11.50      14.4  T
   3  -3478.7855709 -0.818545E-10  0.187E-05   11.50      93.9  T
     SCC iter.                  ...        2 min, 52.789 sec
     gradient                   ...        3 min, 49.589 sec
 * total energy  : -3427.4980715 Eh     change    :  -0.3264825E-05 Eh
   gradient norm :     0.0024300 Eh/a0  converged?    E=T G=F D=F
   time step     :     0.2679486 fs     power     :   0.1402802E-09
   step length   :     0.0019136 a0     speed     :   0.1727451E-03

........................................................................
.............................. CYCLE   20 ..............................
........................................................................

 iter      E             dE          RMSdq      gap      omega  full diag
   1  -3478.7850871 -0.347879E+04  0.223E-04   11.50       0.0  T
   2  -3478.7850871 -0.404498E-08  0.132E-04   11.50      13.3  T
   3  -3478.7850871 -0.116870E-09  0.159E-05   11.50     110.5  T
     SCC iter.                  ...        2 min, 55.985 sec
     gradient                   ...        3 min, 49.575 sec
 * total energy  : -3427.4980748 Eh     change    :  -0.3325018E-05 Eh
   gradient norm :     0.0025357 Eh/a0  converged?    E=T G=F D=F
   time step     :     0.2947435 fs     power     :   0.1313363E-09
   step length   :     0.0021709 a0     speed     :   0.1781591E-03
 * RMSD in coord.:     0.0005477 a0     energy gain  -0.2831812E-03 Eh

........................................................................
.............................. CYCLE   21 ..............................
........................................................................

 iter      E             dE          RMSdq      gap      omega  full diag
   1  -3478.7851410 -0.347879E+04  0.181E-04   11.50       0.0  T
   2  -3478.7851410 -0.153977E-08  0.107E-04   11.50      16.4  T
   3  -3478.7851410 -0.112323E-09  0.103E-05   11.50     169.5  T
     SCC iter.                  ...        2 min, 51.243 sec
     gradient                   ...        3 min, 48.270 sec
 * total energy  : -3427.4980777 Eh     change    :  -0.2891162E-05 Eh
   gradient norm :     0.0025787 Eh/a0  converged?    E=T G=F D=F
   time step     :     0.2500000 fs     power     :   0.1388931E-09
   step length   :     0.0018551 a0     speed     :   0.1794923E-03

........................................................................
.............................. CYCLE   22 ..............................
........................................................................

 iter      E             dE          RMSdq      gap      omega  full diag
   1  -3478.7856512 -0.347879E+04  0.176E-04   11.50       0.0  T
   2  -3478.7856512 -0.127329E-08  0.104E-04   11.50      16.9  T
   3  -3478.7856512 -0.190994E-10  0.100E-05   11.50     174.7  T
     SCC iter.                  ...        2 min, 51.422 sec
     gradient                   ...        3 min, 49.117 sec
 * total energy  : -3427.4980807 Eh     change    :  -0.3022411E-05 Eh
   gradient norm :     0.0025076 Eh/a0  converged?    E=T G=F D=F
   time step     :     0.2500000 fs     power     :   0.1511794E-09
   step length   :     0.0018750 a0     speed     :   0.1814195E-03

........................................................................
.............................. CYCLE   23 ..............................
........................................................................

 iter      E             dE          RMSdq      gap      omega  full diag
   1  -3478.7865765 -0.347879E+04  0.176E-04   11.50       0.0  T
   2  -3478.7865765 -0.166028E-08  0.102E-04   11.50      17.1  T
   3  -3478.7865765 -0.345608E-10  0.111E-05   11.50     157.3  T
     SCC iter.                  ...        2 min, 58.163 sec
     gradient                   ...        3 min, 48.164 sec
 * total energy  : -3427.4980839 Eh     change    :  -0.3190140E-05 Eh
   gradient norm :     0.0023095 Eh/a0  converged?    E=T G=F D=F
   time step     :     0.2500000 fs     power     :   0.1598539E-09
   step length   :     0.0019088 a0     speed     :   0.1846833E-03

........................................................................
.............................. CYCLE   24 ..............................
........................................................................

 iter      E             dE          RMSdq      gap      omega  full diag
   1  -3478.7878498 -0.347879E+04  0.178E-04   11.50       0.0  T
   2  -3478.7878498 -0.258160E-08  0.103E-04   11.50      17.0  T
   3  -3478.7878498 -0.200089E-10  0.131E-05   11.50     133.3  T
     SCC iter.                  ...        2 min, 51.414 sec
     gradient                   ...        3 min, 48.262 sec
 * total energy  : -3427.4980872 Eh     change    :  -0.3249816E-05 Eh
   gradient norm :     0.0020068 Eh/a0  converged?    E=T G=F D=F
   time step     :     0.2500000 fs     power     :   0.1586449E-09
   step length   :     0.0019553 a0     speed     :   0.1891873E-03

........................................................................
.............................. CYCLE   25 ..............................
........................................................................

 iter      E             dE          RMSdq      gap      omega  full diag
   1  -3478.7893788 -0.347879E+04  0.181E-04   11.50       0.0  T
   2  -3478.7893788 -0.366344E-08  0.104E-04   11.50      16.8  T
   3  -3478.7893788 -0.932232E-10  0.154E-05   11.50     113.5  T
     SCC iter.                  ...        2 min, 54.396 sec
     gradient                   ...        3 min, 48.388 sec
 * total energy  : -3427.4980902 Eh     change    :  -0.3027448E-05 Eh
   gradient norm :     0.0016590 Eh/a0  converged?    E=T G=F D=F
   time step     :     0.2500000 fs     power     :   0.1450839E-09
   step length   :     0.0020086 a0     speed     :   0.1943397E-03

........................................................................
.............................. CYCLE   26 ..............................
........................................................................

 iter      E             dE          RMSdq      gap      omega  full diag
   1  -3478.7912132 -0.347879E+04  0.201E-04   11.50       0.0  T
   2  -3478.7912132 -0.532827E-08  0.115E-04   11.50      15.2  T
   3  -3478.7912132 -0.183718E-09  0.189E-05   11.50      92.5  T
     SCC iter.                  ...        2 min, 52.633 sec
     gradient                   ...        3 min, 47.908 sec
 * total energy  : -3427.4980931 Eh     change    :  -0.2853904E-05 Eh
   gradient norm :     0.0013566 Eh/a0  converged?    E=T G=F D=F
   time step     :     0.2750000 fs     power     :   0.1185638E-09
   step length   :     0.0022745 a0     speed     :   0.2000609E-03

........................................................................
.............................. CYCLE   27 ..............................
........................................................................

 iter      E             dE          RMSdq      gap      omega  full diag
   1  -3478.7931535 -0.347879E+04  0.215E-04   11.50       0.0  T
   2  -3478.7931536 -0.608043E-08  0.123E-04   11.50      14.3  T
   3  -3478.7931536 -0.223281E-09  0.202E-05   11.50      86.8  T
     SCC iter.                  ...        2 min, 56.757 sec
     gradient                   ...        3 min, 48.397 sec
 * total energy  : -3427.4980955 Eh     change    :  -0.2461748E-05 Eh
   gradient norm :     0.0013132 Eh/a0  converged?    E=T G=F D=F
   time step     :     0.3025000 fs     power     :   0.8709246E-10
   step length   :     0.0025537 a0     speed     :   0.2041989E-03

........................................................................
.............................. CYCLE   28 ..............................
........................................................................

 iter      E             dE          RMSdq      gap      omega  full diag
   1  -3478.7948451 -0.347879E+04  0.214E-04   11.50       0.0  T
   2  -3478.7948451 -0.473574E-08  0.122E-04   11.50      14.3  T
   3  -3478.7948451 -0.235559E-09  0.172E-05   11.50     101.6  T
     SCC iter.                  ...        2 min, 51.716 sec
     gradient                   ...        3 min, 49.143 sec
 * total energy  : -3427.4980976 Eh     change    :  -0.2088323E-05 Eh
   gradient norm :     0.0015300 Eh/a0  converged?    E=T G=F D=F
   time step     :     0.3327500 fs     power     :   0.6685616E-10
   step length   :     0.0027972 a0     speed     :   0.2033363E-03

........................................................................
.............................. CYCLE   29 ..............................
........................................................................

 iter      E             dE          RMSdq      gap      omega  full diag
   1  -3478.7959597 -0.347880E+04  0.202E-04   11.50       0.0  T
   2  -3478.7959597 -0.222190E-08  0.116E-04   11.50      15.0  T
   3  -3478.7959597 -0.173259E-09  0.116E-05   11.50     150.9  T
     SCC iter.                  ...        2 min, 53.823 sec
     gradient                   ...        3 min, 48.116 sec
 * total energy  : -3427.4980997 Eh     change    :  -0.2124101E-05 Eh
   gradient norm :     0.0017365 Eh/a0  converged?    E=T G=F D=F
   time step     :     0.3660250 fs     power     :   0.6643546E-10
   step length   :     0.0030047 a0     speed     :   0.1985655E-03

........................................................................
.............................. CYCLE   30 ..............................
........................................................................

 iter      E             dE          RMSdq      gap      omega  full diag
   1  -3478.7962811 -0.347880E+04  0.191E-04   11.50       0.0  T
   2  -3478.7962811 -0.961791E-09  0.111E-04   11.50      15.7  T
   3  -3478.7962811 -0.209184E-09  0.838E-06   11.50     209.0  T
     SCC iter.                  ...        2 min, 54.433 sec
     gradient                   ...        3 min, 48.949 sec
 * total energy  : -3427.4981024 Eh     change    :  -0.2619051E-05 Eh
   gradient norm :     0.0017433 Eh/a0  converged?    E=T G=F D=F
   time step     :     0.4026275 fs     power     :   0.7876314E-10
   step length   :     0.0032380 a0     speed     :   0.1945286E-03

........................................................................
.............................. CYCLE   31 ..............................
........................................................................

 iter      E             dE          RMSdq      gap      omega  full diag
   1  -3478.7957160 -0.347880E+04  0.192E-04   11.50       0.0  T
   2  -3478.7957160 -0.238651E-08  0.113E-04   11.50      15.5  T
   3  -3478.7957160 -0.208729E-09  0.110E-05   11.50     159.4  T
     SCC iter.                  ...        2 min, 53.779 sec
     gradient                   ...        3 min, 49.069 sec
 * total energy  : -3427.4981056 Eh     change    :  -0.3229859E-05 Eh
   gradient norm :     0.0015175 Eh/a0  converged?    E=T G=F D=F
   time step     :     0.4428903 fs     power     :   0.8785166E-10
   step length   :     0.0035528 a0     speed     :   0.1940370E-03

........................................................................
.............................. CYCLE   32 ..............................
........................................................................

 iter      E             dE          RMSdq      gap      omega  full diag
   1  -3478.7943796 -0.347879E+04  0.204E-04   11.50       0.0  T
   2  -3478.7943796 -0.590671E-08  0.120E-04   11.50      14.6  T
   3  -3478.7943796 -0.238288E-09  0.184E-05   11.50      95.1  T
     SCC iter.                  ...        2 min, 50.788 sec
     gradient                   ...        3 min, 48.249 sec
 * total energy  : -3427.4981091 Eh     change    :  -0.3482395E-05 Eh
   gradient norm :     0.0012536 Eh/a0  converged?    E=T G=F D=F
   time step     :     0.4871793 fs     power     :   0.8131953E-10
   step length   :     0.0039683 a0     speed     :   0.1970292E-03

........................................................................
.............................. CYCLE   33 ..............................
........................................................................

 iter      E             dE          RMSdq      gap      omega  full diag
   1  -3478.7928005 -0.347879E+04  0.204E-04   11.50       0.0  T
   2  -3478.7928005 -0.749151E-08  0.121E-04   11.50      14.5  T
   3  -3478.7928005 -0.170530E-09  0.215E-05   11.50      81.3  T
     SCC iter.                  ...        2 min, 51.043 sec
     gradient                   ...        3 min, 49.514 sec
 * total energy  : -3427.4981124 Eh     change    :  -0.3290727E-05 Eh
   gradient norm :     0.0013324 Eh/a0  converged?    E=T G=F D=F
   time step     :     0.5358972 fs     power     :   0.6722501E-10
   step length   :     0.0044451 a0     speed     :   0.2006383E-03

........................................................................
.............................. CYCLE   34 ..............................
........................................................................

 iter      E             dE          RMSdq      gap      omega  full diag
   1  -3478.7918836 -0.347879E+04  0.186E-04   11.50       0.0  T
   2  -3478.7918836 -0.340060E-08  0.110E-04   11.50      15.9  T
   3  -3478.7918836 -0.709406E-10  0.120E-05   11.50     145.8  T
     SCC iter.                  ...        2 min, 49.581 sec
     gradient                   ...        3 min, 49.363 sec
 * total energy  : -3427.4981159 Eh     change    :  -0.3513727E-05 Eh
   gradient norm :     0.0015546 Eh/a0  converged?    E=T G=F D=F
   time step     :     0.5894869 fs     power     :   0.6961313E-10
   step length   :     0.0049077 a0     speed     :   0.2013812E-03

........................................................................
.............................. CYCLE   35 ..............................
........................................................................

 iter      E             dE          RMSdq      gap      omega  full diag
   1  -3478.7923012 -0.347879E+04  0.196E-04   11.50       0.0  T
   2  -3478.7923012 -0.856744E-09  0.115E-04   11.50      15.2  T
   3  -3478.7923012 -0.645741E-10  0.667E-06   11.50     262.7  T
     SCC iter.                  ...        2 min, 48.836 sec
     gradient                   ...        3 min, 47.835 sec
 * total energy  : -3427.4981204 Eh     change    :  -0.4503811E-05 Eh
   gradient norm :     0.0014671 Eh/a0  converged?    E=T G=F D=F
   time step     :     0.6484356 fs     power     :   0.8629218E-10
   step length   :     0.0054483 a0     speed     :   0.2032386E-03

........................................................................
.............................. CYCLE   36 ..............................
........................................................................

 iter      E             dE          RMSdq      gap      omega  full diag
   1  -3478.7941907 -0.347879E+04  0.253E-04   11.50       0.0  T
   2  -3478.7941907 -0.692535E-08  0.146E-04   11.50      12.0  T
   3  -3478.7941907 -0.170985E-09  0.211E-05   11.50      83.2  T
     SCC iter.                  ...        2 min, 47.535 sec
     gradient                   ...        3 min, 47.645 sec
 * total energy  : -3427.4981258 Eh     change    :  -0.5424264E-05 Eh
   gradient norm :     0.0011368 Eh/a0  converged?    E=F G=F D=F
   time step     :     0.7132792 fs     power     :   0.8866214E-10
   step length   :     0.0061967 a0     speed     :   0.2101426E-03

........................................................................
.............................. CYCLE   37 ..............................
........................................................................

 iter      E             dE          RMSdq      gap      omega  full diag
   1  -3478.7966368 -0.347880E+04  0.283E-04   11.50       0.0  T
   2  -3478.7966369 -0.120913E-07  0.164E-04   11.50      10.7  T
   3  -3478.7966369 -0.310592E-09  0.293E-05   11.50      59.8  T
     SCC iter.                  ...        2 min, 48.840 sec
     gradient                   ...        3 min, 47.221 sec
 * total energy  : -3427.4981311 Eh     change    :  -0.5333514E-05 Eh
   gradient norm :     0.0012469 Eh/a0  converged?    E=F G=F D=F
   time step     :     0.7846071 fs     power     :   0.7510608E-10
   step length   :     0.0071242 a0     speed     :   0.2196324E-03

........................................................................
.............................. CYCLE   38 ..............................
........................................................................

 iter      E             dE          RMSdq      gap      omega  full diag
   1  -3478.7977336 -0.347880E+04  0.249E-04   11.50       0.0  T
   2  -3478.7977336 -0.537739E-08  0.146E-04   11.50      12.0  T
   3  -3478.7977336 -0.231012E-09  0.203E-05   11.50      86.3  T
     SCC iter.                  ...        2 min, 47.860 sec
     gradient                   ...        3 min, 48.028 sec
 * total energy  : -3427.4981371 Eh     change    :  -0.5923900E-05 Eh
   gradient norm :     0.0013514 Eh/a0  converged?    E=F G=F D=F
   time step     :     0.8630678 fs     power     :   0.8262551E-10
   step length   :     0.0080397 a0     speed     :   0.2253254E-03

........................................................................
.............................. CYCLE   39 ..............................
........................................................................

 iter      E             dE          RMSdq      gap      omega  full diag
   1  -3478.7966965 -0.347880E+04  0.276E-04   11.50       0.0  T
   2  -3478.7966965 -0.879936E-08  0.161E-04   11.50      10.9  T
   3  -3478.7966965 -0.355158E-09  0.269E-05   11.50      65.1  T
     SCC iter.                  ...        2 min, 49.232 sec
     gradient                   ...        3 min, 48.657 sec
 * total energy  : -3427.4981442 Eh     change    :  -0.7165236E-05 Eh
   gradient norm :     0.0010660 Eh/a0  converged?    E=F G=F D=F
   time step     :     0.9493746 fs     power     :   0.8818960E-10
   step length   :     0.0091692 a0     speed     :   0.2336183E-03

........................................................................
.............................. CYCLE   40 ..............................
........................................................................

 iter      E             dE          RMSdq      gap      omega  full diag
   1  -3478.7951744 -0.347880E+04  0.308E-04   11.50       0.0  T
   2  -3478.7951744 -0.100481E-07  0.179E-04   11.50       9.8  T
   3  -3478.7951744 -0.364707E-09  0.254E-05   11.50      69.1  T
     SCC iter.                  ...        2 min, 59.956 sec
     gradient                   ...        3 min, 48.128 sec
 * total energy  : -3427.4981516 Eh     change    :  -0.7373397E-05 Eh
   gradient norm :     0.0012811 Eh/a0  converged?    E=F G=F D=F
   time step     :     1.0443120 fs     power     :   0.8007347E-10
   step length   :     0.0105861 a0     speed     :   0.2452013E-03

........................................................................
.............................. CYCLE   41 ..............................
........................................................................

 iter      E             dE          RMSdq      gap      omega  full diag
   1  -3478.7961787 -0.347880E+04  0.321E-04   11.50       0.0  T
   2  -3478.7961787 -0.500404E-08  0.187E-04   11.50       9.4  T
   3  -3478.7961787 -0.422915E-09  0.139E-05   11.50     125.9  T
     SCC iter.                  ...        2 min, 52.427 sec
     gradient                   ...        3 min, 47.559 sec
 * total energy  : -3427.4981606 Eh     change    :  -0.8954536E-05 Eh
   gradient norm :     0.0011355 Eh/a0  converged?    E=F G=F D=F
   time step     :     1.1487432 fs     power     :   0.9554751E-10
   step length   :     0.0120645 a0     speed     :   0.2540403E-03

........................................................................
.............................. CYCLE   42 ..............................
........................................................................

 iter      E             dE          RMSdq      gap      omega  full diag
   1  -3478.7986174 -0.347880E+04  0.390E-04   11.50       0.0  T
   2  -3478.7986174 -0.183454E-07  0.227E-04   11.50       7.7  T
   3  -3478.7986174 -0.640284E-09  0.324E-05   11.50      54.1  T
     SCC iter.                  ...        2 min, 48.622 sec
     gradient                   ...        3 min, 48.559 sec
 * total energy  : -3427.4981705 Eh     change    :  -0.9914522E-05 Eh
   gradient norm :     0.0012134 Eh/a0  converged?    E=F G=F D=F
   time step     :     1.2500000 fs     power     :   0.8932470E-10
   step length   :     0.0138679 a0     speed     :   0.2683581E-03
 * RMSD in coord.:     0.0017403 a0     energy gain  -0.9563799E-04 Eh

........................................................................
.............................. CYCLE   43 ..............................
........................................................................

 iter      E             dE          RMSdq      gap      omega  full diag
   1  -3478.7986480 -0.347880E+04  0.603E-05   11.50       0.0  T
   2  -3478.7986480 -0.623004E-10  0.355E-05   11.50      49.3  T
   3  -3478.7986480 -0.101863E-09  0.203E-06   11.50     862.1  T
     SCC iter.                  ...        2 min, 53.356 sec
     gradient                   ...        3 min, 47.539 sec
 * total energy  : -3427.4981724 Eh     change    :  -0.1901523E-05 Eh
   gradient norm :     0.0012288 Eh/a0  converged?    E=T G=F D=F
   time step     :     0.2500000 fs     power     :   0.1003270E-09
   step length   :     0.0026875 a0     speed     :   0.2600263E-03

........................................................................
.............................. CYCLE   44 ..............................
........................................................................

 iter      E             dE          RMSdq      gap      omega  full diag
   1  -3478.7982672 -0.347880E+04  0.604E-05   11.50       0.0  T
   2  -3478.7982672 -0.390628E-09  0.352E-05   11.50      49.7  T
   3  -3478.7982672  0.454747E-11  0.467E-06   11.50     374.8  T
     SCC iter.                  ...        2 min, 51.170 sec
     gradient                   ...        3 min, 47.353 sec
 * total energy  : -3427.4981745 Eh     change    :  -0.2086676E-05 Eh
   gradient norm :     0.0011374 Eh/a0  converged?    E=T G=F D=F
   time step     :     0.2500000 fs     power     :   0.1090177E-09
   step length   :     0.0026286 a0     speed     :   0.2543354E-03

........................................................................
.............................. CYCLE   45 ..............................
........................................................................

 iter      E             dE          RMSdq      gap      omega  full diag
   1  -3478.7975739 -0.347880E+04  0.709E-05   11.50       0.0  T
   2  -3478.7975739 -0.100727E-08  0.412E-05   11.50      42.5  T
   3  -3478.7975739  0.159162E-10  0.836E-06   11.50     209.6  T
     SCC iter.                  ...        2 min, 47.681 sec
     gradient                   ...        3 min, 47.735 sec
 * total energy  : -3427.4981766 Eh     change    :  -0.2156484E-05 Eh
   gradient norm :     0.0009989 Eh/a0  converged?    E=T G=T D=F
   time step     :     0.2500000 fs     power     :   0.1109755E-09
   step length   :     0.0026032 a0     speed     :   0.2518715E-03

   *** GEOMETRY OPTIMIZATION CONVERGED AFTER 45 CYCLES ***

------------------------------------------------------------------------
 total energy gain   :        -0.0003850 Eh       -0.2416 kcal/mol
 total RMSD          :         0.0020953 a0        0.0011 Å
 total power (kW/mol):        -0.0224605 (step)   -0.0001 (real)
------------------------------------------------------------------------

 FIRE (total)                  0 d,  5 h, 16 min, 15.964 sec
 setup                          ...        0 min,  0.120 sec (  0.001%)
 velocities                     ...        0 min,  0.003 sec (  0.000%)
 propagation                    ...        0 min,  0.005 sec (  0.000%)
 singlepoint calculation        ...      316 min, 15.038 sec ( 99.995%)
 log and printout               ...        0 min,  0.735 sec (  0.004%)
 preconditioner                 ...        0 min,  0.000 sec (  0.000%)
 model hessian                  ...        0 min,  0.000 sec (  0.000%)
 hessian update                 ...        0 min,  0.000 sec (  0.000%)

================
 final structure:
================
3258
 xtb: 6.6.1 (8d0f1dd)
C          113.70395146540945      113.94471798075020      105.18389769221866
C          113.63858617959097      112.83023164285271      106.22080310071181
C          113.86130625767507      113.33242788821853      107.64821110857444
C          112.64660012012926      114.03791032182784      108.24684215881128
C          112.95960339822837      114.61744343857124      109.62403051042165
C          111.74978855859530      115.27732495716344      110.28120416484508
C          112.13401833801036      116.01698011823277      111.55943628127912
C          110.93740005983037      116.66717665468566      112.24780138789686
C          111.36271864728414      117.50567300593359      113.44952736042229
C          110.17409518146992      118.13420436652926      114.16951360052435
C          110.60984402533431      119.00367803415034      115.34548806633893
C          109.41432013522007      119.58320518707090      116.09360278731708
C          109.82176790647388      120.48092529846603      117.25844897939827
C          108.59578313983137      120.98907128297317      118.00959402845001
C          108.93155071539955      121.91266359814165      119.17639881451070
C          107.65992023461261      122.35115678910094      119.89747230061117
C          107.92748876775956      123.22778176647637      121.11792929541669
C          106.64038105332638      123.76166693597698      121.74825322204444
C          105.80368914391386      122.67941614561215      122.42621945284496
C          104.43898184862061      123.20496486001267      122.86359353965302
C          103.56373679053952      122.14553977953926      123.53806736627658
C          103.32498872291627      120.88076028212350      122.70967751401211
C          102.68964410047207      121.14964096013306      121.34789437860799
C          102.41738972387128      119.87088342184219      120.55555172406858
C          103.68768268498347      119.14924643452102      120.10309713191781
C          103.35623384248963      118.01238494156809      119.14035336622965
C          104.57870934530288      117.22881557048719      118.66893935662505
C          104.18257916331966      116.08530197974503      117.73665972403411
C          105.37964062135211      115.28286449824020      117.23436455927482
C          104.95657739301613      114.15450107548860      116.29687365948573
C          106.13706826936547      113.30421194882152      115.83277589436217
C          105.71270611743083      112.24510871088548      114.81884797210543
C          106.85293090796537      111.30853450381029      114.42852852887368
C          106.40697917299595      110.26426834607918      113.40703401446841
C          107.47846081079024      109.20964323130866      113.14157163887664
C          106.98768207285931      108.13917056938938      112.16974838764656
C          107.97456483557677      106.98899474333739      111.96568813086709
C          108.19508262300934      106.16591336162028      113.23437485279054
C          108.92864551129290      104.85640935855420      112.95230688117027
C          109.37120180853682      104.11941274233565      114.21838697116011
C          108.23026430148163      103.76987773252159      115.17059959924434
C          108.74202690833461      103.08142938564765      116.43353592185726
C          107.65307286133273      102.77278059868286      117.46485113099962
C          106.91193413979387      104.01841936122112      117.97280681731256
C          105.55357389995230      104.21664344390840      117.29868333056967
C          104.93552997761418      105.59341038890763      117.54935419084812
C          105.71662937027877      106.73037387874460      116.88194415145192
C          104.84265588708655      107.92765581768138      116.51006244872086
C          104.32945413203572      108.72716985810982      117.70503912395111
C          103.28738838285730      109.75349209815428      117.26449528124705
C          102.92807353192654      110.74708816380513      118.36346743157809
C          101.83744375086546      111.72059104498490      117.92189359024101
C          101.60156803665764      112.81261231590953      118.95998642467609
C          100.50752559375420      113.79475849386520      118.54985652003137
C          100.43406348070992      114.97165576709109      119.52042294496071
C           99.21050199365007      115.86701854960988      119.33273501258816
C           99.04598654397678      116.45639278312056      117.93433372889268
C          100.15575278798434      117.41409439446149      117.51645870059916
C           99.87955131707845      117.99122205554050      116.13039849751995
C          101.05497217257188      118.78788539492925      115.57023075809849
C          100.76476851134909      119.28101322114885      114.15610292929775
C          101.96990024224066      119.93396408695446      113.48596344237906
C          101.59949004020163      120.45174551074108      112.09820854090624
C          102.80640690449884      120.79110766793863      111.22698755579273
C          102.37253395780517      121.15524742598922      109.80666239283057
C          103.50064012763677      121.03723945963127      108.78602755687969
C          102.99775075290553      121.31009328499933      107.36877984110454
C          103.94022855079312      120.80140625672720      106.27831289711531
C          105.35793946583627      121.36741230998803      106.34124804531854
C          105.39650826450757      122.87868137493476      106.13660466886137
C          106.81006679952719      123.43735819105133      105.98689419017785
C          107.65389538485515      123.30332060364758      107.25109668337919
C          109.00784277793610      123.99037060618876      107.09626904984323
C          109.91605690007302      123.72276918089389      108.29306083663181
C          111.33694738863170      124.26495420926553      108.13648202151430
C          112.08684701386342      123.63275689733273      106.96560609837768
C          113.56663101184554      124.01034158020211      106.94701972529671
C          114.25456658268415      123.65842642576790      105.62641783222398
C          114.42011062067478      122.15596375238684      105.40779197196984
C          114.83925394974651      121.79358434059512      103.98137657610275
C          116.13493641910804      122.44444973489216      103.49552113550368
C          117.34883620374869      122.10366189918058      104.35615397741871
C          118.64015583569083      122.63292633854874      103.73720900611910
C          119.89143297053735      122.26056296247990      104.53401070434533
C          119.97933830172020      122.88548557232227      105.92703298702745
C          120.09060542681377      124.40886946142923      105.89661470895571
C          120.44719303898493      125.01001148486831      107.25738238936225
C          119.35273245751461      124.88316072825086      108.31832932377426
C          118.13863447207582      125.77109305883431      108.05079788888715
C          117.10886238876749      125.65857241651507      109.17165289635172
C          115.90175828807133      126.56896053608416      108.96246233750112
C          114.86305526299876      126.37476017421108      110.06406805418820
C          113.59671520918879      127.19384155994211      109.83492889039293
C          112.57334737397132      126.98685976154347      110.94960776846504
C          111.24095576477721      127.65903201797595      110.63215429526882
C          110.21621476490209      127.47391092825166      111.74902804169581
C          108.82681873453988      127.98870737308157      111.36779722002090
C          108.10959761508678      127.06603379905542      110.38549109934799
C          106.73298972266508      127.59031173581840      109.98466363813134
C          106.00634291060544      126.59171159752727      109.08934868780838
C          104.59781339187712      127.03638500257189      108.70066992348035
C          103.89798546941491      125.94170141726127      107.90016530302169
C          102.53292609624978      126.34164969209914      107.34600146663173
C          101.86000657993587      125.14479738248987      106.67551235240792
C          100.54972271080182      125.49805088755265      105.97674837225691
C           99.74603295752064      124.26225835826973      105.56660009347523
C          100.43987768838414      123.38123285550655      104.52842460881307
C           99.59138839665017      122.15867848855925      104.18309397707060
C          100.23945923703334      121.26632521495213      103.12540073861894
C           99.42683407559582      119.99138946910779      102.90474827527856
C           99.90134560844463      119.14138480551314      101.72449881945700
C          101.36070498331691      118.68314215533725      101.78874039646053
C          101.75427917343497      117.93640479595601      103.06199272789470
C          101.05865139542374      116.58853651814901      103.25383425449419
C          101.35855312603698      116.04905425610399      104.64937567596296
C          100.74986010516963      114.68273118010777      104.95912439075153
C          100.83020821493177      114.40436440070820      106.45886221854009
C          100.21785317384214      113.07270054794719      106.88231535215743
C          100.15325160971180      112.95536211609043      108.40376747917446
C           99.59714966038183      111.61484926959932      108.86286411677318
H          101.15673455474611      113.09179574646885      108.81611593567099
H           99.52249026170067      113.75727181365770      108.79647172266819
H           99.20846450411085      112.98242021234917      106.47211516791495
H          100.81440573939803      112.25095277586203      106.48003274100166
H          101.87753476450283      114.42660092698173      106.76682084127326
H          100.31656755080940      115.21117421212011      106.98934709567392
H           99.70603905256571      114.66632613627206      104.64270620161342
H          101.27783150691323      113.90204838705513      104.40651937358577
H          102.44176433604012      115.99298347724088      104.77658190299199
H          100.98071451546853      116.76959381110564      105.38096587633446
H           99.97966511657832      116.70423776817843      103.13664879158191
H          101.40186247397521      115.88197021078214      102.49565616320683
H          102.83428362708105      117.76901888112275      103.04074900708470
H          101.54621089487426      118.56923525732387      103.92688458392163
H          101.54854180946123      118.03702882442519      100.92757405340244
H          102.01049870220980      119.55542575316672      101.68948757899280
H           99.25059408883980      118.26705700766132      101.64968292062902
H           99.77243377916642      119.71653728924143      100.80373881138971
H           99.43962820681101      119.39476766386016      103.81832211580601
H           98.38553006064978      120.26881613696628      102.72034102333720
H          100.31964551621999      121.81603070715920      102.18466114944898
H          101.25076318438663      121.00903760074223      103.44607838282357
H           99.42715346006800      121.57432391741001      105.09167903788277
H           98.61262834989402      122.48698885249777      103.82495257575560
H          100.63046610485216      123.96382339243691      103.62400493491972
H          101.40170634267119      123.04173816169141      104.91612736085736
H           99.53880444663218      123.66444808774395      106.45689651442781
H           98.78497632218637      124.58895902740640      105.16154563000360
H           99.93751997327959      126.09649955766874      106.65637956620412
H          100.75978109492401      126.10900283875077      105.09603088937372
H          102.55424556753215      124.71699349629937      105.94977618489881
H          101.65945128833107      124.38498769826541      107.43569811236057
H          101.89895206846511      126.71519793248203      108.15381625664891
H          102.65582770394658      127.14910250917526      106.62093389012789
H          104.54151538209959      125.65433903010658      107.06530627453562
H          103.77664066963023      125.06309459209757      108.54048124104639
H          104.02124311392430      127.25853442390785      109.60145140467382
H          104.65033973920376      127.95217347275015      108.10734815969043
H          106.59399621352746      126.42713094765277      108.18261428417473
H          105.94400420998035      125.63485115759366      109.61340288914779
H          106.13837483066638      127.77107652137151      110.88261733946779
H          106.84006058693146      128.54436355082416      109.46294909230917
H          108.71435197280834      126.93778168797623      109.48618699847950
H          107.99326787229235      126.08121130239496      110.84525420282398
H          108.21883617547535      128.07688037723824      112.27181805074237
H          108.91642501477222      128.98671360681860      110.93284828928647
H          110.14588042150231      126.41385030586486      112.00307971652292
H          110.56398648645408      128.00239988657825      112.63982435718087
H          111.40123160142525      128.72642747135200      110.46205649367835
H          110.85111421092576      127.23008871872882      109.70787937272081
H          112.40223265188111      125.91576394819126      111.08620289517617
H          112.97178002298828      127.38123100461563      111.88755391439790
H          113.85145990320309      128.25412191822537      109.76714162207469
H          113.15023601581389      126.89877307819532      108.88226749850946
H          114.59326460938009      125.31734966913140      110.10924432881492
H          115.30155829112198      126.64480334304139      111.02752938078171
H          116.22691064447453      127.61185578980779      108.94351479957552
H          115.44773318399074      126.34611387177075      107.99406788147296
H          116.76311399756688      124.62455881845933      109.23343597508998
H          117.58444001198278      125.90562225991798      110.12441254470986
H          118.46566852493497      126.80974323849654      107.95965039516946
H          117.66822232445222      125.48835908687094      107.10723866989585
H          119.03266770487893      123.84257361418048      108.39530061635382
H          119.77831863914908      125.16244396930342      109.28589560471841
H          121.35186911896824      124.52011356396726      107.62720027075878
H          120.68010473981592      126.06955612576033      107.12411951589279
H          120.87278582909327      124.68593452455437      105.18484367621865
H          119.15625729394174      124.84407044977021      105.54178802026095
H          119.10969163507636      122.58723157659976      106.51279348411710
H          120.86390055844743      122.48015475692937      106.42647737454814
H          119.92818603260909      121.17336242572003      104.63833333735961
H          120.77167196047641      122.56412746004396      103.96101831732605
H          118.74019431836538      122.21831622081834      102.73069164454998
H          118.57708172594404      123.71784778707035      103.63428858394938
H          117.21916881434430      122.53331222232620      105.34942741608609
H          117.42064047689084      121.01948191016859      104.46592085893238
H          116.31958237413879      122.10609803975684      102.47195801464811
H          116.01096122910704      123.52803315339128      103.45707221052746
H          114.95057675411732      120.70710004081180      103.91938976316715
H          114.03430657876207      122.07933798655421      103.29893449938587
H          115.15211899428856      121.76879850850844      106.11943403368424
H          113.47166322608143      121.65475660428596      105.61211282347557
H          113.67017358745322      124.07704191270204      104.80251161064582
H          115.23788528441560      124.13320050300136      105.60929511613905
H          113.64969332045654      125.08851179093735      107.10212678734044
H          114.08512322102554      123.51910043671718      107.77395189700616
H          111.97991163773916      122.54774504774964      107.02376062471657
H          111.63813441320856      123.96748298834197      106.02836162500004
H          111.30354210471688      125.34795487105218      108.00266943244738
H          111.88487122338321      124.06408652879597      109.06013813267123
H          109.46518789750569      124.16303968696333      109.18601944787594
H          109.97065744175497      122.64255818715304      108.44756539720407
H          109.47906406962531      123.61513983513140      106.18669033550759
H          108.85993250759309      125.06627854803136      106.98050160366510
H          107.11801702441048      123.73777054417187      108.09787133105588
H          107.82160676787339      122.24692059432618      107.46659385273064
H          107.31629321097998      122.92476000511849      105.16418201334814
H          106.74329770454061      124.49491446828114      105.72123399974028
H          104.82945337118386      123.12231173060215      105.23398546461080
H          104.91075071690709      123.37081795743683      106.97935200344435
H          105.80401491366734      121.11074706795300      107.30229250569415
H          105.95479920190211      120.88768404750468      105.56249983088900
H          103.99766697948640      119.71290166504458      106.35432436580361
H          103.50496783898434      121.04095302737765      105.30369675172952
H          102.03555979634189      120.80689468737151      107.23664090755712
H          102.82343414503553      122.37890426425442      107.24148065714596
H          104.30081208106236      121.73350171922455      109.04314300305853
H          103.91190264524526      120.02545442287968      108.83056603749435
H          101.56870434347955      120.47970787168427      109.50348088133512
H          101.96818155371041      122.16951868819170      109.79443147982293
H          103.37489933735624      121.61193545746109      111.66953887397713
H          103.46708739329290      119.92027095800323      111.18802097668568
H          101.01585900841745      119.67967137456877      111.58911579738849
H          100.95898958619448      121.33193449092224      112.19713295819918
H          102.33836240693323      120.75333544283832      114.10691643172233
H          102.77410518255408      119.19923553041990      113.39851547420032
H          100.44183291699797      118.43376289180961      113.54566030281235
H           99.94139544902508      119.99622183646183      114.18400033710829
H          101.26873122035713      119.63980528027618      116.21965089213717
H          101.94386991936918      118.15111616293150      115.55436627708639
H           99.65693658993277      117.16810052079909      115.44565759204141
H           98.99263479324475      118.62865321540544      116.17326674847661
H          100.24257248197148      118.22307091347642      118.24536665466157
H          101.10463668430741      116.87732677255053      117.49339420545519
H           98.99523994851374      115.64839202686997      117.20768797215909
H           98.09093820219350      116.98716049587615      117.89661735688641
H           98.31459078845894      115.28445177597176      119.56195960732379
H           99.27277031095066      116.68176439198085      120.05577269400288
H          100.41034065498295      114.58542366845501      120.54393366360446
H          101.34109900015827      115.57061095622399      119.42340471485660
H          100.71913207781567      114.16032106216625      117.54336282479221
H           99.54659043504573      113.27708774710122      118.52357694067491
H          101.33488309552843      112.35129107431622      119.91380989041043
H          102.53454211920645      113.36304249609837      119.11167982268411
H          102.12652142059166      112.18393608226164      116.97445959786620
H          100.90872140432448      111.17368220329865      117.74883841315997
H          102.59164405850758      110.20437439204134      119.24885758039895
H          103.82219025031800      111.31104753637051      118.64325079478535
H          103.67207739510258      110.30471093375199      116.40201628183917
H          102.38386987645346      109.23268243919428      116.94108063199690
H          103.88423767732161      108.05413821412910      118.43832324715643
H          105.16656501488650      109.23753053848610      118.18738865659223
H          105.42018172784483      108.59641000279991      115.86661542158178
H          103.98888253265510      107.57346080233016      115.92797274499951
H          106.52708472165965      107.06378720629122      117.53193556849858
H          106.16635429102787      106.35218445730183      115.96039844284496
H          103.91904215660341      105.58566103218897      117.14677424340297
H          104.86005740100710      105.76894501557116      118.62366412225117
H          105.65598593629758      104.07467889780480      116.22127190309183
H          104.86924431776555      103.44685821721295      117.66415568484192
H          106.75254821591597      103.93674644336690      119.05006789911423
H          107.53649437300415      104.89667036192530      117.80776112469779
H          106.93315290459502      102.07448056723999      117.03612338270440
H          108.13225726025225      102.26672817468925      118.30673747363920
H          109.23949127456704      102.14775177375117      116.15822961770891
H          109.49274701234361      103.72581299651948      116.89848963110721
H          107.71793916092572      104.68696300129599      115.45430480974549
H          107.51397368712462      103.11990566989667      114.66187714052543
H          109.88367138983129      103.20006898625739      113.92562359591489
H          110.09322810319232      104.73904970488546      114.75442507974155
H          108.28183704375083      104.20757850900206      112.35948533138838
H          109.81682996171781      105.07256243729395      112.35257192211638
H          108.77256123489249      106.74788033078734      113.95448068269106
H          107.22137925316999      105.94888774864467      113.67728173992579
H          107.57962052765259      106.33278810801839      111.18555288784081
H          108.93062560197754      107.38041679903519      111.61068020016756
H          106.04427765810581      107.73070514687583      112.54055693130881
H          106.78352271505574      108.60694879443790      111.20401697306154
H          108.37214165250924      109.68825410630727      112.73437351493908
H          107.75469644305134      108.74467433462854      114.08934139349132
H          105.50555070865383      109.76691004600606      113.77420680314165
H          106.14468829084061      110.76070311807791      112.47120772591956
H          107.67773576494700      111.89253961955542      114.01544491560578
H          107.22465616730848      110.80253192010925      115.32331468688498
H          104.89773895570740      111.65339127478174      115.24287809688876
H          105.32780456260403      112.73566405525045      113.92330911337005
H          106.89342861901690      113.95082375955428      115.38425850720854
H          106.59178628430652      112.81525627637416      116.69671293657102
H          104.23420041095797      113.51490782809154      116.80921485384418
H          104.45691474284332      114.58148263497135      115.42431657985772
[...]
  3011   6 C     3012   6 C                                       1.5260044
  3012   6 C     3013   6 C                                       1.5257828
  3013   6 C     3014   6 C                                       1.5267346
  3014   6 C     3015   6 C                                       1.5260850
  3015   6 C     3016   6 C                                       1.5232648
  3015   6 C     3017   1 H                                       1.0933019
  3015   6 C     3018   1 H                                       1.0921384
  3014   6 C     3019   1 H                                       1.0926781
  3014   6 C     3020   1 H                                       1.0934424
  3013   6 C     3021   1 H                                       1.0917786
  3013   6 C     3022   1 H                                       1.0922950
  3012   6 C     3023   1 H                                       1.0928333
  3012   6 C     3024   1 H                                       1.0917968
  3011   6 C     3025   1 H                                       1.0929249
  3011   6 C     3026   1 H                                       1.0922225
  3010   6 C     3027   1 H                                       1.0928556
  3010   6 C     3028   1 H                                       1.0933006
  3009   6 C     3029   1 H                                       1.0931692
  3009   6 C     3030   1 H                                       1.0922345
  3008   6 C     3031   1 H                                       1.0927665
  3008   6 C     3032   1 H                                       1.0931825
  3007   6 C     3033   1 H                                       1.0922524
  3007   6 C     3034   1 H                                       1.0922029
  3006   6 C     3035   1 H                                       1.0923462
  3006   6 C     3036   1 H                                       1.0930618
  3005   6 C     3037   1 H                                       1.0914270
  3005   6 C     3038   1 H                                       1.0922747
  3004   6 C     3039   1 H                                       1.0929885
  3004   6 C     3040   1 H                                       1.0913704
  3003   6 C     3041   1 H                                       1.0930974
  3003   6 C     3042   1 H                                       1.0930607
  3002   6 C     3043   1 H                                       1.0911529
  3002   6 C     3044   1 H                                       1.0932209
  3001   6 C     3045   1 H                                       1.0931963
  3001   6 C     3046   1 H                                       1.0912592
  3000   6 C     3047   1 H                                       1.0913831
  3000   6 C     3048   1 H                                       1.0927019
  2999   6 C     3049   1 H                                       1.0928842
  2999   6 C     3050   1 H                                       1.0905313
  2998   6 C     3051   1 H                                       1.0931082
  2998   6 C     3052   1 H                                       1.0931989
  2997   6 C     3053   1 H                                       1.0905739
  2997   6 C     3054   1 H                                       1.0924045
  2996   6 C     3055   1 H                                       1.0935125
  2996   6 C     3056   1 H                                       1.0920243
  2995   6 C     3057   1 H                                       1.0919193
  2995   6 C     3058   1 H                                       1.0923785
  2994   6 C     3059   1 H                                       1.0917751
  2994   6 C     3060   1 H                                       1.0920702
  2993   6 C     3061   1 H                                       1.0923809
  2993   6 C     3062   1 H                                       1.0926258
  2992   6 C     3063   1 H                                       1.0920874
  2992   6 C     3064   1 H                                       1.0933219
  2991   6 C     3065   1 H                                       1.0925123
  2991   6 C     3066   1 H                                       1.0923554
  2990   6 C     3067   1 H                                       1.0917382
  2990   6 C     3068   1 H                                       1.0926978
  2989   6 C     3069   1 H                                       1.0914704
  2989   6 C     3070   1 H                                       1.0915231
  2988   6 C     3071   1 H                                       1.0914995
  2988   6 C     3072   1 H                                       1.0930724
  2987   6 C     3073   1 H                                       1.0932037
  2987   6 C     3074   1 H                                       1.0920597
  2986   6 C     3075   1 H                                       1.0916653
  2986   6 C     3076   1 H                                       1.0925113
  2985   6 C     3077   1 H                                       1.0933431
  2985   6 C     3078   1 H                                       1.0931868
  2984   6 C     3079   1 H                                       1.0924692
  2984   6 C     3080   1 H                                       1.0908238
  2983   6 C     3081   1 H                                       1.0915661
  2983   6 C     3082   1 H                                       1.0934832
  2982   6 C     3083   1 H                                       1.0930079
  2982   6 C     3084   1 H                                       1.0927488
  2981   6 C     3085   1 H                                       1.0917638
  2981   6 C     3086   1 H                                       1.0931036
  2980   6 C     3087   1 H                                       1.0932162
  2980   6 C     3088   1 H                                       1.0916414
  2979   6 C     3089   1 H                                       1.0921509
  2979   6 C     3090   1 H                                       1.0936685
  2978   6 C     3091   1 H                                       1.0931921
  2978   6 C     3092   1 H                                       1.0931321
  2977   6 C     3093   1 H                                       1.0902092
  2977   6 C     3094   1 H                                       1.0923569
  2976   6 C     3095   1 H                                       1.0918691
  2976   6 C     3096   1 H                                       1.0933002
  2975   6 C     3097   1 H                                       1.0923117
  2975   6 C     3098   1 H                                       1.0933218
  2974   6 C     3099   1 H                                       1.0914533
  2974   6 C     3100   1 H                                       1.0917128
  2973   6 C     3101   1 H                                       1.0934621
  2973   6 C     3102   1 H                                       1.0929293
  2972   6 C     3103   1 H                                       1.0920035
  2972   6 C     3104   1 H                                       1.0931578
  2971   6 C     3105   1 H                                       1.0911127
  2971   6 C     3106   1 H                                       1.0907600
  2970   6 C     3107   1 H                                       1.0935387
  2970   6 C     3108   1 H                                       1.0928787
  2969   6 C     3109   1 H                                       1.0926304
  2969   6 C     3110   1 H                                       1.0913493
  2968   6 C     3111   1 H                                       1.0925358
  2968   6 C     3112   1 H                                       1.0918669
  2967   6 C     3113   1 H                                       1.0890625
  2967   6 C     3114   1 H                                       1.0916414
  2966   6 C     3115   1 H                                       1.0935442
  2966   6 C     3116   1 H                                       1.0925320
  2965   6 C     3117   1 H                                       1.0918233
  2965   6 C     3118   1 H                                       1.0917742
  2964   6 C     3119   1 H                                       1.0924659
  2964   6 C     3120   1 H                                       1.0914496
  2963   6 C     3121   1 H                                       1.0929988
  2963   6 C     3122   1 H                                       1.0912073
  2962   6 C     3123   1 H                                       1.0913221
  2962   6 C     3124   1 H                                       1.0930766
  2961   6 C     3125   1 H                                       1.0931926
  2961   6 C     3126   1 H                                       1.0914002
  2960   6 C     3127   1 H                                       1.0912027
  2960   6 C     3128   1 H                                       1.0918446
  2959   6 C     3129   1 H                                       1.0941269
  2959   6 C     3130   1 H                                       1.0924052
  2958   6 C     3131   1 H                                       1.0901119
  2958   6 C     3132   1 H                                       1.0934388
  2957   6 C     3133   1 H                                       1.0931595
  2957   6 C     3134   1 H                                       1.0927605
  2956   6 C     3135   1 H                                       1.0921972
  2956   6 C     3136   1 H                                       1.0924830
  2955   6 C     3137   1 H                                       1.0930748
  2955   6 C     3138   1 H                                       1.0913852
  2954   6 C     3139   1 H                                       1.0928164
  2954   6 C     3140   1 H                                       1.0937460
  2953   6 C     3141   1 H                                       1.0926364
  2953   6 C     3142   1 H                                       1.0908320
  2952   6 C     3143   1 H                                       1.0925198
  2952   6 C     3144   1 H                                       1.0926591
  2951   6 C     3145   1 H                                       1.0924598
  2951   6 C     3146   1 H                                       1.0909310
  2950   6 C     3147   1 H                                       1.0919252
  2950   6 C     3148   1 H                                       1.0913088
  2949   6 C     3149   1 H                                       1.0919941
  2949   6 C     3150   1 H                                       1.0927021
  2948   6 C     3151   1 H                                       1.0921942
  2948   6 C     3152   1 H                                       1.0927190
  2947   6 C     3153   1 H                                       1.0922912
  2947   6 C     3154   1 H                                       1.0912133
  2946   6 C     3155   1 H                                       1.0915925
  2946   6 C     3156   1 H                                       1.0923618
  2945   6 C     3157   1 H                                       1.0921207
  2945   6 C     3158   1 H                                       1.0930562
  2944   6 C     3159   1 H                                       1.0920556
  2944   6 C     3160   1 H                                       1.0925305
  2943   6 C     3161   1 H                                       1.0931632
  2943   6 C     3162   1 H                                       1.0923713
  2942   6 C     3163   1 H                                       1.0933628
  2942   6 C     3164   1 H                                       1.0933396
  2941   6 C     3165   1 H                                       1.0923214
  2941   6 C     3166   1 H                                       1.0916634
  2940   6 C     3167   1 H                                       1.0930672
  2940   6 C     3168   1 H                                       1.0923738
  2939   6 C     3169   1 H                                       1.0920269
  2939   6 C     3170   1 H                                       1.0929835
  2938   6 C     3171   1 H                                       1.0923827
  2938   6 C     3172   1 H                                       1.0923166
  2937   6 C     3173   1 H                                       1.0911558
  2937   6 C     3174   1 H                                       1.0928408
  2936   6 C     3175   1 H                                       1.0927872
  2936   6 C     3176   1 H                                       1.0921456
  2935   6 C     3177   1 H                                       1.0916270
  2935   6 C     3178   1 H                                       1.0925552
  2934   6 C     3179   1 H                                       1.0928608
  2934   6 C     3180   1 H                                       1.0924739
  2933   6 C     3181   1 H                                       1.0911507
  2933   6 C     3182   1 H                                       1.0935036
  2932   6 C     3183   1 H                                       1.0937651
  2932   6 C     3184   1 H                                       1.0922657
  2931   6 C     3185   1 H                                       1.0918619
  2931   6 C     3186   1 H                                       1.0931774
  2930   6 C     3187   1 H                                       1.0926013
  2930   6 C     3188   1 H                                       1.0909973
  2929   6 C     3189   1 H                                       1.0934908
  2929   6 C     3190   1 H                                       1.0924933
  2928   6 C     3191   1 H                                       1.0927421
  2928   6 C     3192   1 H                                       1.0922501
  2927   6 C     3193   1 H                                       1.0916004
  2927   6 C     3194   1 H                                       1.0925735
  2926   6 C     3195   1 H                                       1.0930579
  2926   6 C     3196   1 H                                       1.0920079
  2925   6 C     3197   1 H                                       1.0926996
  2925   6 C     3198   1 H                                       1.0934234
  2924   6 C     3199   1 H                                       1.0925221
  2924   6 C     3200   1 H                                       1.0919334
  2923   6 C     3201   1 H                                       1.0930903
  2923   6 C     3202   1 H                                       1.0929635
  2922   6 C     3203   1 H                                       1.0923272
  2922   6 C     3204   1 H                                       1.0923099
  2921   6 C     3205   1 H                                       1.0925014
  2921   6 C     3206   1 H                                       1.0929849
  2920   6 C     3207   1 H                                       1.0919776
  2920   6 C     3208   1 H                                       1.0912619
  2919   6 C     3209   1 H                                       1.0929280
  2919   6 C     3210   1 H                                       1.0933924
  2918   6 C     3211   1 H                                       1.0932240
  2918   6 C     3212   1 H                                       1.0916431
  2917   6 C     3213   1 H                                       1.0905973
  2917   6 C     3214   1 H                                       1.0912521
  2916   6 C     3215   1 H                                       1.0928258
  2916   6 C     3216   1 H                                       1.0935187
  2915   6 C     3217   1 H                                       1.0932451
  2915   6 C     3218   1 H                                       1.0927954
  2914   6 C     3219   1 H                                       1.0918274
  2914   6 C     3220   1 H                                       1.0924833
  2913   6 C     3221   1 H                                       1.0928856
  2913   6 C     3222   1 H                                       1.0929720
  2912   6 C     3223   1 H                                       1.0928933
  2912   6 C     3224   1 H                                       1.0924945
  2911   6 C     3225   1 H                                       1.0927193
  2911   6 C     3226   1 H                                       1.0929769
  2910   6 C     3227   1 H                                       1.0928241
  2910   6 C     3228   1 H                                       1.0923959
  2909   6 C     3229   1 H                                       1.0926453
  2909   6 C     3230   1 H                                       1.0930776
  2908   6 C     3231   1 H                                       1.0927734
  2908   6 C     3232   1 H                                       1.0923519
  2907   6 C     3233   1 H                                       1.0925860
  2907   6 C     3234   1 H                                       1.0931023
  2906   6 C     3235   1 H                                       1.0927105
  2906   6 C     3236   1 H                                       1.0923363
  2905   6 C     3237   1 H                                       1.0925048
  2905   6 C     3238   1 H                                       1.0930468
  2904   6 C     3239   1 H                                       1.0926672
  2904   6 C     3240   1 H                                       1.0923560
  2903   6 C     3241   1 H                                       1.0925811
  2903   6 C     3242   1 H                                       1.0930120
  2902   6 C     3243   1 H                                       1.0925428
  2902   6 C     3244   1 H                                       1.0923526
  2901   6 C     3245   1 H                                       1.0930265
  2901   6 C     3246   1 H                                       1.0926903
  2900   6 C     3247   1 H                                       1.0926436
  2900   6 C     3248   1 H                                       1.0926114
  2899   6 C     3249   1 H                                       1.0930210
  2899   6 C     3250   1 H                                       1.0927219
  2898   6 C     3251   1 H                                       1.0924351
  2898   6 C     3252   1 H                                       1.0924774
  2897   6 C     3253   1 H                                       1.0878865
  2897   6 C     3254   1 H                                       1.0879910
  2897   6 C     3255   1 H                                       1.0875026
  3016   6 C     3256   1 H                                       1.0875920
  3016   6 C     3257   1 H                                       1.0879229
  3016   6 C     3258   1 H                                       1.0881026

 * 2 distinct bonds (by element types)

   Z      Z             #   av. dist./Å        max./Å        min./Å
   1 H    6 C        2178     1.0922860     1.0942208     1.0865072
   6 C    6 C        1071     1.5274981     1.5382499     1.5221676


optimized geometry written to: xtbopt.xyz


           -------------------------------------------------
          | TOTAL ENERGY            -3427.498176611250 Eh   |
          | GRADIENT NORM               0.000999498814 Eh/α |
          | HOMO-LUMO GAP              11.501482428327 eV   |
           -------------------------------------------------

------------------------------------------------------------------------
 * finished run on 2024/10/04 at 09:13:52.826     
------------------------------------------------------------------------
 total:
 * wall-time:     0 d,  5 h, 37 min, 58.653 sec
 *  cpu-time:     1 d,  5 h, 59 min, 22.112 sec
 * ratio c/w:     5.324 speedup
 SCF:
 * wall-time:     0 d,  0 h, 13 min, 57.170 sec
 *  cpu-time:     0 d,  1 h, 30 min, 23.380 sec
 * ratio c/w:     6.478 speedup
 ANC optimizer:
 * wall-time:     0 d,  5 h, 23 min, 15.637 sec
 *  cpu-time:     1 d,  4 h, 27 min, 55.764 sec
 * ratio c/w:     5.283 speedup

