3536
 energy: -3716.224870828911 gnorm: 0.000984277991 xtb: 6.6.1 (8d0f1dd)
C           45.86168449435907       37.32187256479467       49.25533687535569
C           45.54920716230135       38.69936569663877       48.67593990467604
C           44.12661940561645       38.70845089421429       48.11820368994247
C           46.53251442405381       39.09240308794983       47.56695359663595
C           48.00600057707331       39.17548245369336       47.97989584855259
C           48.22128729449955       40.22541379808981       49.06918368089200
C           48.89662284175262       39.52954333205372       46.78009501567734
C           48.86996545478264       38.55331061380588       45.59794154968362
C           49.16324851415301       37.12245917132624       46.04955448307793
C           49.90420652266659       38.96672692879295       44.54028693569937
C           49.60034823669206       40.25711733058844       43.76412258350250
C           48.43250463522309       40.05214309422551       42.80233546720166
C           50.87783966250318       40.67695841273704       43.02180591478719
C           50.76801940230890       41.89278952198489       42.09093383714668
C           52.10974541371587       42.09364755244838       41.38545083005446
C           50.35575717715957       43.14427142523662       42.87337640520940
C           50.20774157911990       44.43678037625639       42.05666991340024
C           49.93424516809318       45.59546270899330       43.01463673874687
C           49.08793425628156       44.29327082879115       41.01914699795029
C           48.84411751078521       45.50193419351321       40.10454913671786
C           47.55201887936198       45.26947658085493       39.32031700034553
C           50.01744360474857       45.72091763207361       39.14177168768486
C           50.06154915243782       47.11534944387117       38.49698881437067
C           50.84853369422025       47.04848396517582       37.18926635854105
C           50.67244455220215       48.13097057387164       39.47038704564181
C           50.60916045451177       49.59390674928928       38.99651156771930
C           51.96846984868967       50.05943060032431       38.47532241726878
C           50.17147881042592       50.53791500694806       40.12494818762034
C           48.70735681885728       50.40038913245778       40.55411327226188
C           47.77345281246733       50.97845685693765       39.49062073521351
C           48.45576248222181       51.12541110855437       41.88341455708505
C           49.06864173237891       50.48996988699025       43.13687581011600
C           48.37545899464071       49.17338055665758       43.47854229466376
C           48.93956503891106       51.45543738764392       44.32480367575893
C           49.97187042090751       52.59474235060983       44.34231974809494
C           51.30465229618737       52.08412354124474       44.88558855487377
C           49.41122955818964       53.74592589405604       45.19057872209620
C           50.30187778846864       54.97915760976615       45.41373159315435
C           49.90820170110521       55.62903668006557       46.74371821191826
C           50.18121847173885       56.03839833968733       44.30771759712147
C           50.85345574693069       55.73808235221593       42.95961750912458
C           52.37126097773830       55.69541467399686       43.10176071001467
C           50.42381921049381       56.82132569382275       41.95844378573029
C           51.07996720931663       56.78167989730325       40.57081332833113
C           50.65909304828269       58.03658535930680       39.80432621229331
C           50.69703047398936       55.51639716777809       39.79367279176110
C           51.58002064106815       55.22831283775889       38.56768991775785
C           50.81133605455995       54.35569091548744       37.57716260823456
C           52.89817414510924       54.57056594693390       38.99736669390272
C           53.96507687562622       54.47086310529640       37.89023925585662
C           54.04277342763729       53.05915596420003       37.31055666552253
C           55.35093614075317       54.87216582839341       38.41848415906976
C           55.53670781753007       56.38590319846077       38.58230489811837
C           55.86776001765875       57.03033007627293       37.23690213837190
C           56.65170778424158       56.69762727711574       39.59080098708499
C           56.22843989919465       56.57048355064869       41.06121461410417
C           55.36197158751821       57.75906091907576       41.46901229509937
C           57.48479344758533       56.47333163268063       41.93873815784665
C           57.25149271603831       56.39735927018530       43.45546040014709
C           58.59925142887953       56.44679085455664       44.17249177104936
C           56.48704331363800       55.12196326651944       43.82001130222027
C           56.07783106282468       54.95317312221331       45.29116314950279
C           55.34280988131351       53.61929022561226       45.42239798915972
C           55.20643822270257       56.13359537403937       45.73835522364212
C           54.48860281538710       55.98992766238668       47.08699244201037
C           53.56244349006293       57.18975086531974       47.28139030259326
C           55.50595487931469       55.87219719126142       48.22688081172613
C           54.93433331600225       55.88269615319861       49.65208389498432
C           56.09939142057270       55.82295824009853       50.63948558348797
C           53.96563584258352       54.71777980328375       49.87114905080600
C           53.24107103065360       54.68206401326538       51.22405911765712
C           52.45304419898233       53.37427351605212       51.30888860969864
C           52.29295871717846       55.87656944923866       51.42764234048801
C           52.88949257778315       57.05438129374151       52.20977639362609
C           52.99265715711655       56.71260039648114       53.69604938847274
C           52.03584475438789       58.31948886243828       52.04296004041713
C           52.14868550386475       59.01555868176732       50.68124208290021
C           53.50045455338439       59.70438531758489       50.51747652395256
C           51.02930762049521       60.05355010355907       50.51686202949961
C           49.67950648150943       59.46332445570343       50.08565712035110
C           49.69481085578494       59.14864673967131       48.59119346354836
C           48.57061638528675       60.46486050394874       50.42613550012265
C           47.13446065716401       60.03344357560304       50.10143370128124
C           46.20246189787810       61.21442068093675       50.36702579557235
C           46.75020733153899       58.80352105314279       50.93260439623251
C           45.27654499983682       58.38026570455578       50.88670096613733
C           45.08578828086522       57.17699958880326       51.80859528060843
C           44.82126412442497       58.06101589554176       49.45986785763139
C           43.32866095510943       57.75280229822265       49.35764374287292
C           42.86230784726703       57.71556520313611       47.90862402505413
H           46.83064997459795       37.30769057105432       49.74706920283401
H           45.10914747901239       37.04322278808607       49.98983954090647
H           45.86397656080809       36.57174574370405       48.46673891877285
H           43.41763578762336       56.96460390803406       47.35022199586533
H           41.80175941581079       57.47746709640820       47.85543178447740
H           43.02380113453545       58.68112921316393       47.43446195736227
H           45.03487296706874       58.91743097066690       48.81822019638537
H           45.39717721831639       57.21517363204190       49.07592244351031
H           47.35345508915493       57.95562131641020       50.60077722618568
H           47.00877803969660       59.00479588955215       51.97591035975420
H           47.07478103988993       59.78506537916248       49.03849187741596
H           45.18505581861946       60.99620067034484       50.05597156772401
H           46.19538995804096       61.45855399959174       51.42668399455719
H           46.53929303584574       62.08854883944984       49.81393976603643
H           48.62142034435382       60.69543898094819       51.49392680306094
H           48.78531562884872       61.38857351874665       49.88423005774214
H           50.91230563342728       60.58388166623102       51.46484696677357
H           51.32807782396957       60.79145962587887       49.76864634125092
H           44.66039783560127       59.20087913734755       51.26843709842887
H           45.60797752037467       56.31174432731701       51.40943611871650
H           45.48460791611192       57.38768873705583       52.79873640661495
H           44.03468626357623       56.92836916490225       51.91456145053854
H           49.51137578571383       58.53550972526821       50.63948511981205
H           49.70517990790810       60.07194315625105       48.01479296878544
H           50.58139888076642       58.57765290480788       48.32796214555455
H           48.82407481885275       58.56609214171959       48.30212169913784
H           52.05057521157777       58.26891400412331       49.88915569969667
H           53.60771317699191       60.50346480218234       51.24765691587838
H           54.32312325480436       59.00885834282817       50.65300942481781
H           53.58269680545153       60.13155644043381       49.52047692962591
H           50.99203374362622       58.05262913462020       52.22360631082583
H           52.32736736085322       59.03768653183398       52.81183628432513
H           53.89656883792608       57.25945517481936       51.84416920821169
H           53.49896766547558       57.50881870064202       54.23842892346256
H           51.99889011500563       56.58826922967377       54.12038240455956
H           53.54904112251820       55.79061935160367       53.84918442828579
H           51.95072815488850       56.21988932476906       50.45031472482192
H           51.40612998573857       55.53818579155299       51.96881460466479
H           53.98455889508081       54.67176161356866       52.02500512946646
H           53.11459418987945       52.52016270755880       51.17828464748170
H           51.96331032569850       53.27968399616966       52.27489881195588
H           51.69304817803122       53.33691745750154       50.53131685158705
H           53.20287442785435       54.73456149797835       49.09030082736044
H           54.52875923047434       53.78758045199089       49.75650256788244
H           54.39965505115102       56.82279353729950       49.79767538556943
H           56.82084325521624       56.60738553784364       50.42312662648546
H           55.76380380511225       55.95255085827046       51.66509473536529
H           56.61126091135606       54.86726790665143       50.56295634083913
H           56.08094096671743       54.95330284710456       48.09511005094302
H           56.20513447440198       56.70932969974613       48.13911268354156
H           53.86839069318663       55.09071714004283       47.05685933081426
H           54.13574506937430       58.09830301183590       47.44756816144915
H           52.94297122305098       57.33387526114190       46.39879564174669
H           52.90418508072186       57.03737693528343       48.13180163046898
H           55.82742105452463       57.03022148126257       45.78321977373329
H           54.44835408247977       56.29795242069298       44.97059585334279
H           56.97818050850241       54.91027156298659       45.91094217350787
H           55.94352614124987       52.81456571829089       45.00468579963926
H           55.13437696865133       53.37870863363352       46.46027220281506
H           54.40032620020300       53.64945315040754       44.87956501381029
H           55.57410910308207       55.07646543004245       43.22312755477324
H           57.11052069707515       54.26923537005337       43.53849826872867
H           56.67071605719974       57.27080977006985       43.75950316069092
H           59.18178565164366       55.55575667399903       43.94799582658691
H           59.16853554689724       57.31689144546145       43.85203017320526
H           58.46513496189053       56.50870848246163       45.24888558526004
H           58.05536529150294       55.59170886651399       41.63293508771701
H           58.10708974973340       57.34875096511189       41.73180513516610
H           55.64412465877670       55.65221621905392       41.17273763595811
H           54.93037253566042       57.60857429998077       42.45457947337214
H           55.96213351994766       58.66558297150456       41.48449302400883
H           54.54581758556687       57.90565089228935       40.76550992131800
H           57.48785810409623       56.02178461791933       39.39495044934264
H           57.01007303352913       57.71646925805993       39.42580733719973
H           54.59880860631743       56.81921459368996       38.94149077683514
H           56.84110188070180       56.69221282357175       36.88638574123016
H           55.12543842511141       56.77042046723327       36.48594858523418
H           55.89455641950929       58.11438532222650       37.32602497377211
H           55.51418898990276       54.37046720357601       39.37481649093389
H           56.11710034585294       54.50945455625509       37.72976307035293
H           53.69402630014225       55.15509771489548       37.07989941275181
H           54.38852035623092       52.35789811512454       38.06809550390977
H           53.07392456004534       52.72363111686744       36.95311316126706
H           54.73664388131763       53.02845731363153       36.47281490878602
H           53.30811497057339       55.15361528033314       39.82328254568780
H           52.68297916504819       53.57243008078300       39.38591442256185
H           51.81664475107068       56.17418311988943       38.06966271019240
H           49.87941182193600       54.83881845750484       37.28993969130126
H           51.39135922817141       54.18616323772314       36.67401608685179
H           50.57129200605987       53.39231933396133       38.02362889350380
H           50.74699983851372       54.65003194726459       40.45519050722002
H           49.65821934023833       55.61890225862719       39.47227979047266
H           52.16539332072233       56.81508024750581       40.69352570332728
H           50.98406864230326       58.93137651716258       40.33169933261215
H           51.09507676290273       58.05721727449401       38.80904467422694
H           49.57606181211210       58.07349415262291       39.70179542059129
H           49.34089540869962       56.76227901295921       41.82558076146561
H           50.64262463264602       57.79621788110103       42.40326184618806
H           50.50569129010439       54.76774762054249       42.60093420340084
H           52.66250061111545       55.04408082703028       43.92080340724908
H           52.83804514673755       55.31733133227050       42.19641929328284
H           52.75540586025885       56.69430222826527       43.30102239808835
H           49.11871426365024       56.22342470359094       44.13508975799579
H           50.61078576586397       56.97104156390787       44.68577654200072
H           51.34238996636486       54.66318453630798       45.50459471874298
H           50.04287280433488       54.93158647913351       47.56808217613548
H           50.52043305301736       56.50505740151748       46.94083986500113
H           48.86544917154283       55.93951549268303       46.72240232376682
H           48.46939710926755       54.07872789225075       44.74620091153797
H           49.17198220818654       53.32358981016908       46.17130250913003
H           50.12914135169621       52.93811863536690       43.31732789251612
H           52.10413901116798       52.79797330358877       44.71044500019754
H           51.23528347735007       51.90221828465667       45.95639710676988
H           51.58443132888996       51.15434736786605       44.39796865490582
H           47.93098724218634       51.87612280295436       44.30886931341102
H           49.03689351651322       50.89205603209795       45.25592269906578
H           50.12927282104040       50.28706816713561       42.96309144058784
H           48.84141509563963       48.70846892784538       44.34352292346088
H           47.32693360588168       49.35031630346723       43.70348906362690
H           48.43081367611858       48.47122476204321       42.65209298482947
H           48.82698161883363       52.14777504439600       41.78067651232588
H           47.37707831190368       51.18594412736056       42.04418280597158
H           48.46490858636761       49.34070256167066       40.67226567025218
H           47.91926518601482       50.48756278904658       38.53202834381248
H           46.73319531689730       50.84478511350797       39.77990223708037
H           47.95772363909755       52.04331758677199       39.36308645315328
H           50.82273466469770       50.35800799613418       40.98265875288975
H           50.33636820006456       51.57077694341525       39.80643059870446
H           49.88630961150668       49.66984178638506       38.17903039982164
H           52.69141633438921       50.08164209013118       39.28847112606869
H           52.34247923222004       49.39784690362957       37.69931928166012
H           51.89206339098823       51.06119895681450       38.05940616611628
H           50.15124371547969       48.04037895722928       40.42416695965034
H           51.71260930716304       47.85847947183643       39.65051139285355
H           49.03972463888142       47.43229422300976       38.26350725573096
H           51.88053527190221       46.76030111239510       37.38109290557302
H           50.40762027497659       46.31332446624887       36.51887619367329
H           50.84507548497616       48.00835017245765       36.68014578883477
H           50.96150918308273       45.56314148723393       39.66584338585581
H           49.95425331701751       44.96326910796270       38.35708877998749
H           48.70713308511534       46.39472382979370       40.71976807417307
H           47.63551753185600       44.37107446979462       38.71155924947599
H           46.70901917468264       45.14579315470709       39.99616446305402
H           47.33649768980996       46.10816608452945       38.66352749268095
H           49.30402947917884       43.43667245261096       40.37821379966211
H           48.16004975057364       44.07530003431464       41.55578455455522
H           51.15512548349810       44.63870480438104       41.55104720865917
H           50.66603725737082       45.60111126967028       43.81868905954045
H           49.99801576242145       46.55075084353183       42.50202619507596
H           48.94355457493748       45.50643544507756       43.45525177020721
H           49.40291463656349       42.95378042188877       43.37055213790805
H           51.10401455233640       43.31342974602501       43.65222251563678
H           50.01624682010266       41.67313780572938       41.32956008584876
H           52.43390017172183       41.16465193929196       40.92042476449989
H           52.03249455305200       42.84793282343630       40.60681260688681
H           52.87221929397440       42.40516276993296       42.09706847370756
H           51.65506737455807       40.88177156320763       43.76272074218187
H           51.21494814334660       39.82493786839669       42.42517008385099
H           49.33408117519720       41.04273405406475       44.47590115614827
H           48.13795196529551       40.99055406501038       42.34026017611463
H           48.70695985311796       39.34927331589054       42.01829680871468
H           47.56639591659068       39.65737713373710       43.32723615545175
H           50.87083635163565       39.07549693705554       45.03721077166377
H           50.00209585667305       38.15600658586614       43.81365159513600
H           47.87727318477619       38.56973758941682       45.14017552656373
H           50.10135405246577       37.08404030735487       46.59846186144370
H           48.37304076066981       36.74192671921281       46.69090109060898
H           49.24101361262796       36.46197233126473       45.18820003884840
H           48.60535910428811       40.52117009345105       46.42611529322514
H           49.92868707532146       39.59865612226874       47.13508763815641
H           48.32659265066394       38.20815322963994       48.37358847895275
H           47.70109981616115       39.95785611162378       49.98434950182600
H           49.28095199816343       40.31525050125358       49.30076018365367
H           47.85739131409804       41.19659216227952       48.73786636744657
H           46.43061425037568       38.36185020322320       46.76263068101301
H           46.23362621089760       40.06527266355008       47.16579549457506
H           45.59966972603355       39.43854374534850       49.48075365232221
H           43.88586155351756       39.67926477880044       47.69036525037225
H           44.01865304200527       37.95744680125119       47.33810414551333
H           43.40531230097252       38.49229078976786       48.90334659529990
H           43.11127877062786       56.79190547495639       49.82531847539678
H           42.76630271597605       58.52112887260269       49.89296549722685
C           45.50544290854310       47.61031485581294       41.57903026886738
C           44.53557265263262       47.90071841373660       42.72101504852580
C           43.71173792893292       46.65105390951490       43.03072446258619
C           43.60414866150174       49.07205635143163       42.38392037451558
C           44.25254619340125       50.46492623128946       42.42763838193073
C           44.56255637214773       50.87922538442598       43.86465820159879
C           43.30099107530517       51.45995194062490       41.74218994207894
C           43.63934704226211       52.95190488035332       41.88076860421285
C           42.53193362236790       53.77677828225882       41.22634509428955
C           45.00756594865500       53.27820291692219       41.27377166096340
C           45.49963711997436       54.72584187633274       41.44000131884196
C           46.88057274972064       54.84404649719342       40.79513144557486
C           45.53886864501531       55.11825025382139       42.92168934935977
C           46.12466985026662       56.49681634451834       43.26299584888639
C           46.03449278623803       56.68775115711396       44.77803005809209
C           45.38610327809229       57.60630313499732       42.50581843558618
C           45.71949668334448       59.04959812574342       42.91096059961406
C           44.86420112609290       59.99645328061112       42.06883175940087
C           47.21600995678629       59.34067836428527       42.74390299168695
C           47.66799868505024       60.77516341785275       43.06150828208569
C           49.17140625101013       60.88267634316197       42.80571814156730
C           47.32318029716023       61.15170295999738       44.50682639606358
C           47.66540951765554       62.58328406613572       44.94781362503771
C           47.34728815080010       62.71791101464202       46.43753677462402
C           46.89367978324975       63.61671185166015       44.11911939439423
C           47.18510315268357       65.09399599095946       44.42735414351489
C           46.16072246614885       65.95642797247126       43.68842903244565
C           48.61570190401587       65.46287819090085       44.01354665867481
C           49.10123989324043       66.85435788297430       44.44938361123231
C           50.34179071373718       67.23073367121641       43.63920537114426
C           49.41090031438725       66.87230016267536       45.95085828990771
C           49.58348380828897       68.26084602992216       46.58756815659433
C           50.11686952002693       68.08662217440835       48.00935030748134
C           48.25404206948212       69.02801198652919       46.56671582914949
C           48.18793300618891       70.34847768628664       47.35050107850675
C           46.76396278087984       70.89557638840068       47.23810527733902
C           49.22161053194847       71.35670666581873       46.83681681871622
C           49.27636322642390       72.69175831215055       47.59476942001739
C           50.18756150195767       73.65454024506282       46.83138284278198
C           49.75320435018262       72.51760083715146       49.05036715458046
C           48.82135096728388       73.14711050103412       50.09399741673533
C           48.87823456668318       74.67196116500052       50.02573032464950
C           49.18457526177191       72.67375970908546       51.51033660212310
C           48.62564336324233       71.29142566916832       51.87215226074452
C           47.13558997920342       71.38620127062957       52.19813251977379
C           49.37083711560540       70.68434642343729       53.07047352240480
C           50.76830896735753       70.13844984580084       52.75210436966227
C           50.67116521450225       68.84591620010841       51.94258380767781
C           51.55837623400363       69.86183768002377       54.04097283528561
C           52.11143228635549       71.09731021979290       54.76225941936733
C           53.25349806586964       71.72726502201756       53.96474222189190
C           52.62580236033325       70.72257376740097       56.16286356484655
C           51.54565561731570       70.45910216846191       57.21919336804353
C           50.80059667951265       71.74630749789041       57.57515692278905
C           52.14802175693784       69.88072012237342       58.51020331702887
C           52.82452843195124       68.50881942739431       58.40470811484182
C           51.87631380117401       67.46068157188805       57.82264033946511
C           53.29309168789128       68.01896531642068       59.78396258418383
C           54.28276098823475       68.91369087983585       60.53914083415796
C           55.51702300394886       69.22578723159286       59.69215626791409
C           54.73959582898310       68.23454956896715       61.84051960739654
C           53.63997723034723       67.88780624643211       62.85036172044315
C           52.83989047754216       69.12673594356387       63.25266224540180
C           54.23788411620088       67.25717463140397       64.11725106188534
C           54.97758012869259       65.92039259099276       63.94972654711359
C           54.08924197443696       64.88414057158943       63.26516893223992
C           55.42097042637921       65.45141755171724       65.34401812513023
C           56.32034262304812       64.20990541863610       65.40021889536423
C           56.50811674496527       63.80042841700804       66.86168144295664
C           57.68358171166862       64.44082051260301       64.72562960429457
C           57.79508406788114       63.82226988404712       63.32636302196894
C           58.00576246657604       62.31307735638008       63.43269853265531
C           58.95366216075838       64.43866708075059       62.53472639771672
C           58.69354500033039       65.85181943294349       62.00133727141505
C           57.72258675955053       65.80159729394796       60.82441816447331
C           60.00810797280683       66.51049340697421       61.56072635563756
C           60.88458624791286       66.97743820000827       62.73216395820218
C           60.44367887819396       68.37430181534765       63.17492602999764
C           62.38036694858399       67.00372028582407       62.37840169336125
C           63.17533979340821       65.69329410061151       62.53829019297498
C           62.82056812011263       64.64141988068647       61.49029833078561
C           63.06845286090730       65.13581811549579       63.96399081128953
C           64.11292372229505       64.05058644427724       64.29479869683676
C           63.49465337699417       62.65571718915920       64.21319374101097
C           64.70188812611178       64.30074418085947       65.68982471213793
C           65.86120865217164       63.38324905048776       66.09742209489430
C           66.27797425671012       63.70529084433083       67.53322547677509
C           67.06232692286102       63.44960933756903       65.14228485218673
C           67.64510139645762       64.84239468059614       64.91029284558533
C           68.87111211439814       64.78176687983469       64.00610701021029
H           44.96111823453278       47.30011509190806       40.68929120178350
H           46.09330806571410       48.48923000310051       41.33067960860763
H           46.19029787972624       46.81290133197179       41.85913495365266
H           69.27649578340180       65.77791276504409       63.84295821761802
H           69.64796961331223       64.16586871605602       64.45478733963897
H           68.61262305598532       64.35494456969383       63.03962951784199
H           67.85032208412377       62.80739003476416       65.54628925617999
H           66.77181962348422       63.02990540316186       64.17630634112894
H           65.04457401428338       65.33572472732979       65.74994457417958
H           63.90054665189633       64.18436930783639       66.42534801190011
H           64.92202309106553       64.11812502843878       63.56183402340513
H           64.25620187196513       61.88849431847856       64.31875978603890
H           62.76032730124792       62.52102125539366       65.00486448700745
H           62.99689384226411       62.50719235360473       63.25927510696985
H           63.18595711664117       65.97236689587042       64.65632517232478
H           62.07252413931850       64.72089920132777       64.12370345455523
H           62.49214430824838       67.35653327584997       61.34982137770127
H           62.86215172381647       67.74370876115692       63.02343297154610
H           65.50350029770576       62.34764130705916       66.08583998006540
H           66.58684656570115       64.74340509581953       67.62703811486274
H           65.44580665581816       63.54178906312099       68.21538145499814