      -----------------------------------------------------------      
     |                   =====================                   |     
     |                           x T B                           |     
     |                   =====================                   |     
     |                         S. Grimme                         |     
     |          Mulliken Center for Theoretical Chemistry        |     
     |                    University of Bonn                     |     
      -----------------------------------------------------------      

   * xtb version 6.6.1 (8d0f1dd) compiled by 'stahn@M-Bot' on 2023-08-01

   xtb is free software: you can redistribute it and/or modify it under
   the terms of the GNU Lesser General Public License as published by
   the Free Software Foundation, either version 3 of the License, or
   (at your option) any later version.
   
   xtb is distributed in the hope that it will be useful,
   but WITHOUT ANY WARRANTY; without even the implied warranty of
   MERCHANTABILITY or FITNESS FOR A PARTICULAR PURPOSE.  See the
   GNU Lesser General Public License for more details.
   
   Cite this work as:
   * C. Bannwarth, E. Caldeweyher, S. Ehlert, A. Hansen, P. Pracht,
     J. Seibert, S. Spicher, S. Grimme, WIREs Comput. Mol. Sci., 2020, 11,
     e01493. DOI: 10.1002/wcms.1493
   
   for GFN2-xTB:
   * C. Bannwarth, S. Ehlert and S. Grimme., J. Chem. Theory Comput., 2019,
     15, 1652-1671. DOI: 10.1021/acs.jctc.8b01176
   for GFN1-xTB:
   * S. Grimme, C. Bannwarth, P. Shushkov, J. Chem. Theory Comput., 2017,
     13, 1989-2009. DOI: 10.1021/acs.jctc.7b00118
   for GFN0-xTB:
   * P. Pracht, E. Caldeweyher, S. Ehlert, S. Grimme, ChemRxiv, 2019, preprint.
     DOI: 10.26434/chemrxiv.8326202.v1
   for GFN-FF:
   * S. Spicher and S. Grimme, Angew. Chem. Int. Ed., 2020, 59, 15665-15673.
     DOI: 10.1002/anie.202004239
   
   for ALPB and GBSA implicit solvation:
   * S. Ehlert, M. Stahn, S. Spicher, S. Grimme, J. Chem. Theory Comput.,
     2021, 17, 4250-4261. DOI: 10.1021/acs.jctc.1c00471
   
   for DFT-D4:
   * E. Caldeweyher, C. Bannwarth and S. Grimme, J. Chem. Phys., 2017,
     147, 034112. DOI: 10.1063/1.4993215
   * E. Caldeweyher, S. Ehlert, A. Hansen, H. Neugebauer, S. Spicher,
     C. Bannwarth and S. Grimme, J. Chem. Phys., 2019, 150, 154122.
     DOI: 10.1063/1.5090222
   * E. Caldeweyher, J.-M. Mewes, S. Ehlert and S. Grimme, Phys. Chem. Chem. Phys.
     2020, 22, 8499-8512. DOI: 10.1039/D0CP00502A
   
   for sTDA-xTB:
   * S. Grimme and C. Bannwarth, J. Chem. Phys., 2016, 145, 054103.
     DOI: 10.1063/1.4959605
   
   in the mass-spec context:
   * V. Asgeirsson, C. Bauer and S. Grimme, Chem. Sci., 2017, 8, 4879.
     DOI: 10.1039/c7sc00601b
   * J. Koopman and S. Grimme, ACS Omega 2019, 4, 12, 15120-15133.
     DOI: 10.1021/acsomega.9b02011
   
   for metadynamics refer to:
   * S. Grimme, J. Chem. Theory Comput., 2019, 155, 2847-2862
     DOI: 10.1021/acs.jctc.9b00143
   
   for SPH calculations refer to:
   * S. Spicher and S. Grimme, J. Chem. Theory Comput., 2021, 17, 1701-1714
     DOI: 10.1021/acs.jctc.0c01306
   
   with help from (in alphabetical order)
   P. Atkinson, C. Bannwarth, F. Bohle, G. Brandenburg, E. Caldeweyher
   M. Checinski, S. Dohm, S. Ehlert, S. Ehrlich, I. Gerasimov, C. Hölzer
   A. Katbashev, J. Koopman, C. Lavigne, S. Lehtola, F. März, M. Müller,
   F. Musil, H. Neugebauer, J. Pisarek, C. Plett, P. Pracht, F. Pultar,
   J. Seibert, P. Shushkov, S. Spicher, M. Stahn, M. Steiner, T. Strunk,
   J. Stückrath, T. Rose, and J. Unsleber
   
 * started run on 2024/06/20 at 16:00:14.446     

           -------------------------------------------------
          |                Calculation Setup                |
           -------------------------------------------------

          program call               : /home/abt-grimme/AK-bin/xtb input.xyz --input input.inp --opt --gbsa water
          hostname                   : boar014.thch.uni-bonn.de
          coordinate file            : input.xyz
          omp threads                :                     8

   ID    Z sym.   atoms
    1    6 C      1-90, 273-362, 545-634, 817-906, 1089-1178, 1361-1450,
                  1633-1722, 1905-1994, 2177-2266, 2449-2538, 2721-2810,
                  2993-3082, 3265-3354
    2    1 H      91-272, 363-544, 635-816, 907-1088, 1179-1360, 1451-1632,
                  1723-1904, 1995-2176, 2267-2448, 2539-2720, 2811-2992,
                  3083-3264, 3355-3536

molecular fragmentation (1/2 indicates fragments):
111111111111111111111111111111111111111111111111111111111111111111111111
111111111111111111111111111111111111111111111111111111111111111111111111
111111111111111111111111111111111111111111111111111111111111111111111111
111111111111111111111111111111111111111111111111111111112222222222222222
222222222222222222222222222222222222222222222222222222222222222222222222
222222222222222222222222222222222222222222222222222222222222222222222222
222222222222222222222222222222222222222222222222222222222222222222222222
222222222222222222222222222222222222222222222222222222222222222222222222
222222222222222222222222222222222222222222222222222222222222222222222222
222222222222222222222222222222222222222222222222222222222222222222222222
222222222222222222222222222222222222222222222222222222222222222222222222
222222222222222222222222222222222222222222222222222222222222222222222222
222222222222222222222222222222222222222222222222222222222222222222222222
222222222222222222222222222222222222222222222222222222222222222222222222
222222222222222222222222222222222222222222222222222222222222222222222222
222222222222222222222222222222222222222222222222222222222222222222222222
222222222222222222222222222222222222222222222222222222222222222222222222
222222222222222222222222222222222222222222222222222222222222222222222222
222222222222222222222222222222222222222222222222222222222222222222222222
222222222222222222222222222222222222222222222222222222222222222222222222
222222222222222222222222222222222222222222222222222222222222222222222222
222222222222222222222222222222222222222222222222222222222222222222222222
222222222222222222222222222222222222222222222222222222222222222222222222
222222222222222222222222222222222222222222222222222222222222222222222222
222222222222222222222222222222222222222222222222222222222222222222222222
222222222222222222222222222222222222222222222222222222222222222222222222
222222222222222222222222222222222222222222222222222222222222222222222222
222222222222222222222222222222222222222222222222222222222222222222222222
222222222222222222222222222222222222222222222222222222222222222222222222
222222222222222222222222222222222222222222222222222222222222222222222222
222222222222222222222222222222222222222222222222222222222222222222222222
222222222222222222222222222222222222222222222222222222222222222222222222
222222222222222222222222222222222222222222222222222222222222222222222222
222222222222222222222222222222222222222222222222222222222222222222222222
222222222222222222222222222222222222222222222222222222222222222222222222
222222222222222222222222222222222222222222222222222222222222222222222222
222222222222222222222222222222222222222222222222222222222222222222222222
222222222222222222222222222222222222222222222222222222222222222222222222
222222222222222222222222222222222222222222222222222222222222222222222222
222222222222222222222222222222222222222222222222222222222222222222222222
222222222222222222222222222222222222222222222222222222222222222222222222
222222222222222222222222222222222222222222222222222222222222222222222222
222222222222222222222222222222222222222222222222222222222222222222222222
222222222222222222222222222222222222222222222222222222222222222222222222
222222222222222222222222222222222222222222222222222222222222222222222222
222222222222222222222222222222222222222222222222222222222222222222222222
222222222222222222222222222222222222222222222222222222222222222222222222
222222222222222222222222222222222222222222222222222222222222222222222222
222222222222222222222222222222222222222222222222222222222222222222222222
22222222
# atoms in fragment 1/2:   272  3264
 fragment masses (1/2) :     1264.41    15172.94
CMA distance (Bohr)    :  19.542
constraining FC (au)   :  0.0500

           -------------------------------------------------
          |                 G F N 2 - x T B                 |
           -------------------------------------------------

        Reference                      10.1021/acs.jctc.8b01176
      * Hamiltonian:
        H0-scaling (s, p, d)           1.850000    2.230000    2.230000
        zeta-weighting                 0.500000
      * Dispersion:
        s8                             2.700000
        a1                             0.520000
        a2                             5.000000
        s9                             5.000000
      * Repulsion:
        kExp                           1.500000    1.000000
        rExp                           1.000000
      * Coulomb:
        alpha                          2.000000
        third order                    shell-resolved
        anisotropic                    true
        a3                             3.000000
        a5                             4.000000
        cn-shift                       1.200000
        cn-exp                         4.000000
        max-rad                        5.000000

      * Solvation model:               GBSA
        Solvent                        water
        Parameter file                 internal GFN2-xTB/GBSA
        Dielectric constant                8.0200E+01
        Reference state                gsolv [1 M gas/solution]
        Free energy shift                  1.8574E-03 Eh       1.1656E+00 kcal/mol
        Temperature                        2.9815E+02 K
        Density                            1.0000E+00 kg/L
        Solvent mass                       1.8000E+01 g/mol
        Interaction kernel             Still
        Born radius scaling (c1)           1.5524E+00
        Born radii integrator          GBOBC
        Born offset                        2.4628E-02 a0       4.6540E-02 AA
        H-bond correction              true
        Ion screening                  false
        Surface tension                    1.0000E-05 Eh       1.5569E+01 dyn/cm
        Grid points                               230 per atom
q/qsh data taken from xtbrestart
CAMM data taken from xtbrestart

          ...................................................
          :                      SETUP                      :
          :.................................................:
          :  # basis functions                7046          :
          :  # atomic orbitals                7046          :
          :  # shells                         4706          :
          :  # electrons                      7046          :
          :  max. iterations                   250          :
          :  Hamiltonian                  GFN2-xTB          :
          :  restarted?                       true          :
          :  GBSA solvation                   true          :
          :  PC potential                    false          :
          :  electronic temp.          300.0000000     K    :
          :  accuracy                    1.0000000          :
          :  -> integral cutoff          0.2500000E+02      :
          :  -> integral neglect         0.1000000E-07      :
          :  -> SCF convergence          0.1000000E-05 Eh   :
          :  -> wf. convergence          0.1000000E-03 e    :
          :  Broyden damping             0.4000000          :
          ...................................................

 iter      E             dE          RMSdq      gap      omega  full diag
   1  -3764.2715089 -0.376427E+04  0.385E-05   10.53       0.0  T
   2  -3764.2715089 -0.992259E-09  0.294E-05   10.53      57.2  T
   3  -3764.2715089 -0.129285E-08  0.147E-05   10.53     114.8  T

   *** convergence criteria satisfied after 3 iterations ***

         #    Occupation            Energy/Eh            Energy/eV
      -------------------------------------------------------------
         1        2.0000           -0.6175456             -16.8043
       ...           ...                  ...                  ...
      3517        2.0000           -0.3758058             -10.2262
      3518        2.0000           -0.3748670             -10.2006
      3519        2.0000           -0.3742698             -10.1844
      3520        2.0000           -0.3741883             -10.1822
      3521        2.0000           -0.3738115             -10.1719
      3522        2.0000           -0.3728665             -10.1462
      3523        2.0000           -0.3718029             -10.1173 (HOMO)
      3524                          0.0152356               0.4146 (LUMO)
      3525                          0.0160887               0.4378
      3526                          0.0165953               0.4516
      3527                          0.0169441               0.4611
      3528                          0.0172968               0.4707
       ...                                ...                  ...
      7046                          0.3665609               9.9746
      -------------------------------------------------------------
                  HL-Gap            0.3870386 Eh           10.5319 eV
             Fermi-level           -0.1782836 Eh           -4.8513 eV

 SCC (total)                   0 d,  0 h,  8 min, 35.139 sec
 SCC setup                      ...        0 min,  2.029 sec (  0.394%)
 Dispersion                     ...        0 min,  4.103 sec (  0.797%)
 classical contributions        ...        0 min,  0.166 sec (  0.032%)
 integral evaluation            ...        0 min,  7.239 sec (  1.405%)
 iterations                     ...        3 min, 34.833 sec ( 41.704%)
 molecular gradient             ...        4 min, 35.657 sec ( 53.511%)
 printout                       ...        0 min, 11.112 sec (  2.157%)

         :::::::::::::::::::::::::::::::::::::::::::::::::::::
         ::                     SUMMARY                     ::
         :::::::::::::::::::::::::::::::::::::::::::::::::::::
         :: total energy           -3715.362593192038 Eh    ::
         :: total w/o Gsasa/hb     -3715.252421371273 Eh    ::
         :: gradient norm              0.661176984860 Eh/a0 ::
         :: HOMO-LUMO gap             10.531855291912 eV    ::
         ::.................................................::
         :: SCC energy             -3764.271508863808 Eh    ::
         :: -> isotropic ES            0.438998512418 Eh    ::
         :: -> anisotropic ES          1.496180542247 Eh    ::
         :: -> anisotropic XC          2.301433945220 Eh    ::
         :: -> dispersion             -4.709334241066 Eh    ::
         :: -> Gsolv                  -0.046323879211 Eh    ::
         ::    -> Gelec                0.063847941555 Eh    ::
         ::    -> Gsasa               -0.105581480964 Eh    ::
         ::    -> Ghb                 -0.006447782928 Eh    ::
         ::    -> Gshift               0.001857443127 Eh    ::
         :: repulsion energy          48.179908596830 Eh    ::
         :: add. restraining           0.000000000000 Eh    ::
         :: total charge              -0.000000000007 e     ::
         :::::::::::::::::::::::::::::::::::::::::::::::::::::

      ----------------------------------------------------------- 
     |              Fast Inertial Relaxation Engine              |
      ----------------------------------------------------------- 

          ...................................................
          :                      SETUP                      :
          :.................................................:
          :   energy convergence        0.5000000E-05 Eh    :
          :   grad. convergence         0.1000000E-02 Eh/a0 :
          :   optimization log               true           :
          :   writing optlog all                1     steps :
          :   Hessian reset                    20     steps :
          :   time step scaling                 5     steps :
          :   maximium step len.        1.0000000     a0    :
          :   initial time step         0.2500000     fs    :
          :   maximum time step         1.2500000     fs    :
          :   power reset thr           0.0000000     au    :
          :   alpha parameter           0.1000000           :
          :   BFGS update                   false           :
          :   preconditioning               false           :
          ...................................................

........................................................................
.............................. CYCLE    1 ..............................
........................................................................

 iter      E             dE          RMSdq      gap      omega  full diag
   1  -3764.5316110 -0.376453E+04  0.757E-03   10.54       0.0  T
   2  -3764.5316538 -0.427868E-04  0.411E-03   10.54       1.0  T
   3  -3764.5316545 -0.670541E-06  0.178E-03   10.54       1.0  T
   4  -3764.5316550 -0.535105E-06  0.440E-04   10.54       3.8  T
   5  -3764.5316553 -0.271881E-06  0.176E-04   10.54       9.6  T
     SCC iter.                  ...        5 min, 51.655 sec
     gradient                   ...        4 min, 33.232 sec
 * total energy  : -3715.4123085 Eh     change    :  -0.4971526E-01 Eh
   gradient norm :     0.6286867 Eh/a0  converged?    E=F G=F D=F
   time step     :     0.2500000 fs     power     :   0.2573104E-05
   step length   :     0.0774885 a0     speed     :   0.7497432E-02

........................................................................
.............................. CYCLE    2 ..............................
........................................................................

 iter      E             dE          RMSdq      gap      omega  full diag
   1  -3764.9153102 -0.376492E+04  0.111E-02   10.56       0.0  T
   2  -3764.9154023 -0.921208E-04  0.603E-03   10.56       1.0  T
   3  -3764.9154038 -0.149624E-05  0.261E-03   10.56       1.0  T
   4  -3764.9154050 -0.115496E-05  0.653E-04   10.55       2.6  T
   5  -3764.9154056 -0.592143E-06  0.271E-04   10.55       6.2  T
   6  -3764.9154056 -0.452269E-07  0.125E-04   10.55      13.5  T
     SCC iter.                  ...        7 min,  2.723 sec
     gradient                   ...        4 min, 36.180 sec
 * total energy  : -3715.4813233 Eh     change    :  -0.6901486E-01 Eh
   gradient norm :     0.5830211 Eh/a0  converged?    E=F G=F D=F
   time step     :     0.2500000 fs     power     :   0.3520951E-05
   step length   :     0.1141958 a0     speed     :   0.1104906E-01

........................................................................
.............................. CYCLE    3 ..............................
........................................................................

 iter      E             dE          RMSdq      gap      omega  full diag
   1  -3765.4128488 -0.376541E+04  0.143E-02   10.57       0.0  T
   2  -3765.4129997 -0.150864E-03  0.777E-03   10.57       1.0  T
   3  -3765.4130022 -0.248037E-05  0.333E-03   10.57       1.0  T
   4  -3765.4130040 -0.187237E-05  0.839E-04   10.57       2.0  T
   5  -3765.4130050 -0.974022E-06  0.351E-04   10.57       4.8  T
   6  -3765.4130051 -0.729397E-07  0.157E-04   10.57      10.7  T
     SCC iter.                  ...        7 min,  8.158 sec
     gradient                   ...        4 min, 29.755 sec
 * total energy  : -3715.5631727 Eh     change    :  -0.8184938E-01 Eh
   gradient norm :     0.5254851 Eh/a0  converged?    E=F G=F D=F
   time step     :     0.2500000 fs     power     :   0.4106599E-05
   step length   :     0.1482448 a0     speed     :   0.1434348E-01

........................................................................
.............................. CYCLE    4 ..............................
........................................................................

 iter      E             dE          RMSdq      gap      omega  full diag
   1  -3766.0116788 -0.376601E+04  0.171E-02   10.59       0.0  T
   2  -3766.0118889 -0.210137E-03  0.927E-03   10.59       1.0  T
   3  -3766.0118925 -0.356334E-05  0.392E-03   10.59       1.0  T
   4  -3766.0118950 -0.255697E-05  0.989E-04   10.58       1.7  T
   5  -3766.0118964 -0.134132E-05  0.424E-04   10.58       4.0  T
   6  -3766.0118965 -0.103621E-06  0.185E-04   10.58       9.1  T
   7  -3766.0118965 -0.496102E-07  0.121E-04   10.58      13.9  T
     SCC iter.                  ...        8 min, 14.132 sec
     gradient                   ...        4 min, 31.256 sec
 * total energy  : -3715.6504393 Eh     change    :  -0.8726661E-01 Eh
   gradient norm :     0.4596861 Eh/a0  converged?    E=F G=F D=F
   time step     :     0.2500000 fs     power     :   0.4290952E-05
   step length   :     0.1788056 a0     speed     :   0.1730041E-01

........................................................................
.............................. CYCLE    5 ..............................
........................................................................

 iter      E             dE          RMSdq      gap      omega  full diag
   1  -3766.6965282 -0.376670E+04  0.194E-02   10.60       0.0  T
   2  -3766.6967880 -0.259796E-03  0.105E-02   10.60       1.0  T
   3  -3766.6967925 -0.457334E-05  0.435E-03   10.60       1.0  T
   4  -3766.6967955 -0.300011E-05  0.109E-03   10.60       1.5  T
   5  -3766.6967971 -0.158553E-05  0.475E-04   10.60       3.5  T
   6  -3766.6967972 -0.107481E-06  0.190E-04   10.60       8.8  T
   7  -3766.6967973 -0.492191E-07  0.123E-04   10.60      13.7  T
     SCC iter.                  ...        8 min, 11.554 sec
     gradient                   ...        4 min, 34.899 sec
 * total energy  : -3715.7356923 Eh     change    :  -0.8525304E-01 Eh
   gradient norm :     0.3909827 Eh/a0  converged?    E=F G=F D=F
   time step     :     0.2500000 fs     power     :   0.4088302E-05
   step length   :     0.2051653 a0     speed     :   0.1985084E-01

........................................................................
.............................. CYCLE    6 ..............................
........................................................................

 iter      E             dE          RMSdq      gap      omega  full diag
   1  -3767.5320245 -0.376753E+04  0.235E-02   10.62       0.0  T
   2  -3767.5323810 -0.356511E-03  0.126E-02   10.62       1.0  T
   3  -3767.5323879 -0.694301E-05  0.508E-03   10.62       1.0  T
   4  -3767.5323918 -0.389463E-05  0.125E-03   10.62       1.3  T
   5  -3767.5323938 -0.202176E-05  0.581E-04   10.62       2.9  T
   6  -3767.5323940 -0.146702E-06  0.216E-04   10.61       7.8  T
   7  -3767.5323940 -0.612695E-07  0.141E-04   10.61      11.9  T
     SCC iter.                  ...        8 min, 13.155 sec
     gradient                   ...        4 min, 37.738 sec
 * total energy  : -3715.8199258 Eh     change    :  -0.8423351E-01 Eh
   gradient norm :     0.3204074 Eh/a0  converged?    E=F G=F D=F
   time step     :     0.2750000 fs     power     :   0.3492230E-05
   step length   :     0.2517953 a0     speed     :   0.2214777E-01

........................................................................
.............................. CYCLE    7 ..............................
........................................................................

 iter      E             dE          RMSdq      gap      omega  full diag
   1  -3768.5145228 -0.376851E+04  0.273E-02   10.63       0.0  T
   2  -3768.5149601 -0.437281E-03  0.146E-02   10.62       1.0  T
   3  -3768.5149704 -0.102545E-04  0.562E-03   10.62       1.0  T
   4  -3768.5149748 -0.437502E-05  0.135E-03   10.62       1.2  T
   5  -3768.5149768 -0.207102E-05  0.688E-04   10.62       2.4  T
   6  -3768.5149770 -0.186288E-06  0.228E-04   10.62       7.4  T
   7  -3768.5149771 -0.665509E-07  0.154E-04   10.62      10.9  T
     SCC iter.                  ...        8 min, 13.725 sec
     gradient                   ...        4 min, 32.365 sec
 * total energy  : -3715.8938524 Eh     change    :  -0.7392655E-01 Eh
   gradient norm :     0.2639445 Eh/a0  converged?    E=F G=F D=F
   time step     :     0.3025000 fs     power     :   0.2556716E-05
   step length   :     0.2997961 a0     speed     :   0.2397263E-01

........................................................................
.............................. CYCLE    8 ..............................
........................................................................

 iter      E             dE          RMSdq      gap      omega  full diag
   1  -3769.6100121 -0.376961E+04  0.304E-02   10.63       0.0  T
   2  -3769.6104667 -0.454582E-03  0.163E-02   10.63       1.0  T
   3  -3769.6104813 -0.145980E-04  0.576E-03   10.63       1.0  T
   4  -3769.6104853 -0.399495E-05  0.132E-03   10.63       1.3  T
   5  -3769.6104866 -0.129518E-05  0.759E-04   10.63       2.2  T
   6  -3769.6104868 -0.216090E-06  0.214E-04   10.62       7.9  T
   7  -3769.6104869 -0.570849E-07  0.152E-04   10.62      11.1  T
     SCC iter.                  ...        8 min, 10.638 sec
     gradient                   ...        4 min, 28.885 sec
 * total energy  : -3715.9493906 Eh     change    :  -0.5553818E-01 Eh
   gradient norm :     0.2413890 Eh/a0  converged?    E=F G=F D=F
   time step     :     0.3327500 fs     power     :   0.1483235E-05
   step length   :     0.3438247 a0     speed     :   0.2499391E-01

........................................................................
.............................. CYCLE    9 ..............................
........................................................................

 iter      E             dE          RMSdq      gap      omega  full diag
   1  -3770.7369851 -0.377074E+04  0.323E-02   10.64       0.0  T
   2  -3770.7373592 -0.374146E-03  0.175E-02   10.64       1.0  T
   3  -3770.7373777 -0.184513E-04  0.535E-03   10.64       1.0  T
   4  -3770.7373809 -0.327433E-05  0.129E-03   10.63       1.3  T
   5  -3770.7373814 -0.464971E-06  0.741E-04   10.63       2.3  T
   6  -3770.7373816 -0.199443E-06  0.165E-04   10.63      10.2  T
     SCC iter.                  ...        7 min,  0.045 sec
     gradient                   ...        4 min, 31.298 sec
 * total energy  : -3715.9839372 Eh     change    :  -0.3454657E-01 Eh
   gradient norm :     0.2492630 Eh/a0  converged?    E=F G=F D=F
   time step     :     0.3660250 fs     power     :   0.5706040E-06
   step length   :     0.3763434 a0     speed     :   0.2487074E-01

........................................................................
.............................. CYCLE   10 ..............................
........................................................................

 iter      E             dE          RMSdq      gap      omega  full diag
   1  -3771.7832956 -0.377178E+04  0.332E-02   10.65       0.0  T
   2  -3771.7835370 -0.241308E-03  0.184E-02   10.65       1.0  T
   3  -3771.7835527 -0.157046E-04  0.469E-03   10.65       1.0  T
   4  -3771.7835608 -0.809522E-05  0.145E-03   10.65       1.2  T
   5  -3771.7835618 -0.106591E-05  0.812E-04   10.65       2.1  T
   6  -3771.7835619 -0.126732E-06  0.135E-04   10.65      12.5  T
   7  -3771.7835620 -0.209980E-07  0.999E-05   10.65      16.8  T
     SCC iter.                  ...        8 min, 11.181 sec
     gradient                   ...        4 min, 33.806 sec
 * total energy  : -3716.0011057 Eh     change    :  -0.1716853E-01 Eh
   gradient norm :     0.2587481 Eh/a0  converged?    E=F G=F D=F
   time step     :     0.4026275 fs     power     :  -0.2702085E-07
   step length   :     0.3947339 a0     speed     :   0.2371462E-01

........................................................................
.............................. CYCLE   11 ..............................
........................................................................
 * reset velocities

 iter      E             dE          RMSdq      gap      omega  full diag
   1  -3771.7650072 -0.377177E+04  0.104E-03   10.65       0.0  T
   2  -3771.7650080 -0.832889E-06  0.639E-04   10.65       2.6  T
   3  -3771.7650080 -0.114956E-07  0.270E-04   10.65       6.2  T
     SCC iter.                  ...        3 min, 35.595 sec
     gradient                   ...        4 min, 36.218 sec
 * total energy  : -3716.0036189 Eh     change    :  -0.2513225E-02 Eh
   gradient norm :     0.2525702 Eh/a0  converged?    E=F G=F D=F
   time step     :     0.2013138 fs     power     :   0.1636740E-06
   step length   :     0.0098318 a0     speed     :   0.1181341E-02

........................................................................
.............................. CYCLE   12 ..............................
........................................................................

 iter      E             dE          RMSdq      gap      omega  full diag
   1  -3771.7283697 -0.377173E+04  0.209E-03   10.65       0.0  T
   2  -3771.7283728 -0.312326E-05  0.128E-03   10.65       1.3  T
   3  -3771.7283729 -0.287378E-07  0.521E-04   10.65       3.2  T
   4  -3771.7283730 -0.822165E-07  0.135E-04   10.65      12.5  T
     SCC iter.                  ...        4 min, 36.207 sec
     gradient                   ...        4 min, 29.197 sec
 * total energy  : -3716.0084083 Eh     change    :  -0.4789430E-02 Eh
   gradient norm :     0.2405166 Eh/a0  converged?    E=F G=F D=F
   time step     :     0.2013138 fs     power     :   0.3079330E-06
   step length   :     0.0194287 a0     speed     :   0.2334453E-02

........................................................................
.............................. CYCLE   13 ..............................
........................................................................

 iter      E             dE          RMSdq      gap      omega  full diag
   1  -3771.6745871 -0.377167E+04  0.301E-03   10.65       0.0  T
   2  -3771.6745941 -0.703002E-05  0.185E-03   10.65       1.0  T
   3  -3771.6745942 -0.104448E-06  0.785E-04   10.65       2.1  T
   4  -3771.6745944 -0.185784E-06  0.205E-04   10.65       8.2  T
     SCC iter.                  ...        4 min, 43.923 sec
     gradient                   ...        4 min, 30.776 sec
 * total energy  : -3716.0150267 Eh     change    :  -0.6618408E-02 Eh
   gradient norm :     0.2230626 Eh/a0  converged?    E=F G=F D=F
   time step     :     0.2013138 fs     power     :   0.4195847E-06
   step length   :     0.0285660 a0     speed     :   0.3432343E-02

........................................................................
.............................. CYCLE   14 ..............................
........................................................................

 iter      E             dE          RMSdq      gap      omega  full diag
   1  -3771.6050779 -0.377161E+04  0.388E-03   10.65       0.0  T
   2  -3771.6050897 -0.117556E-04  0.239E-03   10.65       1.0  T
   3  -3771.6050899 -0.180381E-06  0.101E-03   10.65       1.7  T
   4  -3771.6050902 -0.309733E-06  0.267E-04   10.65       6.3  T
   5  -3771.6050903 -0.897858E-07  0.677E-05   10.65      24.8  T
     SCC iter.                  ...        5 min, 51.129 sec
     gradient                   ...        4 min, 30.476 sec
 * total energy  : -3716.0228660 Eh     change    :  -0.7839245E-02 Eh
   gradient norm :     0.2009691 Eh/a0  converged?    E=F G=F D=F
   time step     :     0.2013138 fs     power     :   0.4890825E-06
   step length   :     0.0370339 a0     speed     :   0.4449807E-02

........................................................................
.............................. CYCLE   15 ..............................
........................................................................

 iter      E             dE          RMSdq      gap      omega  full diag
   1  -3771.5217613 -0.377152E+04  0.465E-03   10.66       0.0  T
   2  -3771.5217782 -0.169662E-04  0.286E-03   10.66       1.0  T
   3  -3771.5217785 -0.264935E-06  0.122E-03   10.66       1.4  T
   4  -3771.5217789 -0.432064E-06  0.320E-04   10.66       5.3  T
   5  -3771.5217791 -0.128031E-06  0.805E-05   10.66      20.9  T
     SCC iter.                  ...        5 min, 46.786 sec
     gradient                   ...        4 min, 28.786 sec
 * total energy  : -3716.0312253 Eh     change    :  -0.8359354E-02 Eh
   gradient norm :     0.1752762 Eh/a0  converged?    E=F G=F D=F
   time step     :     0.2013138 fs     power     :   0.5115127E-06
   step length   :     0.0446444 a0     speed     :   0.5364247E-02

........................................................................
.............................. CYCLE   16 ..............................
........................................................................

 iter      E             dE          RMSdq      gap      omega  full diag
   1  -3771.4271144 -0.377143E+04  0.528E-03   10.66       0.0  T
   2  -3771.4271364 -0.220023E-04  0.325E-03   10.66       1.0  T
   3  -3771.4271368 -0.348296E-06  0.138E-03   10.66       1.2  T
   4  -3771.4271373 -0.549463E-06  0.364E-04   10.66       4.6  T
   5  -3771.4271375 -0.165242E-06  0.918E-05   10.66      18.3  T
     SCC iter.                  ...        5 min, 47.116 sec
     gradient                   ...        4 min, 30.003 sec
 * total energy  : -3716.0393916 Eh     change    :  -0.8166255E-02 Eh
   gradient norm :     0.1475494 Eh/a0  converged?    E=F G=F D=F
   time step     :     0.2013138 fs     power     :   0.4875286E-06
   step length   :     0.0512322 a0     speed     :   0.6155804E-02

........................................................................
.............................. CYCLE   17 ..............................
........................................................................

 iter      E             dE          RMSdq      gap      omega  full diag
   1  -3771.3129879 -0.377131E+04  0.638E-03   10.66       0.0  T
   2  -3771.3130202 -0.323028E-04  0.394E-03   10.67       1.0  T
   3  -3771.3130207 -0.514940E-06  0.167E-03   10.67       1.0  T
   4  -3771.3130215 -0.787124E-06  0.440E-04   10.67       3.8  T
   5  -3771.3130217 -0.240393E-06  0.109E-04   10.67      15.4  T
     SCC iter.                  ...        5 min, 51.873 sec
     gradient                   ...        4 min, 32.636 sec
 * total energy  : -3716.0474310 Eh     change    :  -0.8039371E-02 Eh
   gradient norm :     0.1173707 Eh/a0  converged?    E=F G=F D=F
   time step     :     0.2214451 fs     power     :   0.4147249E-06
   step length   :     0.0629240 a0     speed     :   0.6873295E-02

........................................................................
.............................. CYCLE   18 ..............................
........................................................................

 iter      E             dE          RMSdq      gap      omega  full diag
   1  -3771.1815979 -0.377118E+04  0.741E-03   10.67       0.0  T
   2  -3771.1816416 -0.436563E-04  0.460E-03   10.67       1.0  T
   3  -3771.1816423 -0.696866E-06  0.194E-03   10.67       1.0  T
   4  -3771.1816433 -0.104114E-05  0.513E-04   10.67       3.3  T
   5  -3771.1816436 -0.322961E-06  0.126E-04   10.67      13.3  T
   6  -3771.1816436 -0.127666E-07  0.874E-05   10.67      19.3  T
     SCC iter.                  ...        7 min,  0.864 sec
     gradient                   ...        4 min, 29.380 sec
 * total energy  : -3716.0543705 Eh     change    :  -0.6939521E-02 Eh
   gradient norm :     0.0908441 Eh/a0  converged?    E=F G=F D=F
   time step     :     0.2435896 fs     power     :   0.2965740E-06
   step length   :     0.0750500 a0     speed     :   0.7452583E-02

........................................................................
.............................. CYCLE   19 ..............................
........................................................................

 iter      E             dE          RMSdq      gap      omega  full diag
   1  -3771.0413463 -0.377104E+04  0.812E-03   10.68       0.0  T
   2  -3771.0413981 -0.518105E-04  0.507E-03   10.68       1.0  T
   3  -3771.0413989 -0.786426E-06  0.211E-03   10.68       1.0  T
   4  -3771.0414001 -0.122782E-05  0.558E-04   10.68       3.0  T
   5  -3771.0414005 -0.379194E-06  0.129E-04   10.68      13.1  T
   6  -3771.0414005 -0.112491E-07  0.847E-05   10.68      19.8  T
     SCC iter.                  ...        7 min,  3.792 sec
     gradient                   ...        4 min, 29.834 sec
 * total energy  : -3716.0593082 Eh     change    :  -0.4937688E-02 Eh
   gradient norm :     0.0811362 Eh/a0  converged?    E=F G=F D=F
   time step     :     0.2679486 fs     power     :   0.1573411E-06
   step length   :     0.0862330 a0     speed     :   0.7784616E-02

........................................................................
.............................. CYCLE   20 ..............................
........................................................................

 iter      E             dE          RMSdq      gap      omega  full diag
   1  -3770.9103467 -0.377091E+04  0.813E-03   10.68       0.0  T
   2  -3770.9103960 -0.493506E-04  0.513E-03   10.69       1.0  T
   3  -3770.9103967 -0.640157E-06  0.206E-03   10.69       1.0  T
   4  -3770.9103979 -0.126367E-05  0.548E-04   10.69       3.1  T
   5  -3770.9103983 -0.363994E-06  0.128E-04   10.69      13.1  T
   6  -3770.9103983 -0.931095E-08  0.786E-05   10.69      21.4  T
     SCC iter.                  ...        6 min, 58.079 sec
     gradient                   ...        4 min, 29.481 sec
 * total energy  : -3716.0620602 Eh     change    :  -0.2752015E-02 Eh
   gradient norm :     0.0944736 Eh/a0  converged?    E=F G=F D=F
   time step     :     0.2947435 fs     power     :   0.4773814E-07
   step length   :     0.0938958 a0     speed     :   0.7705789E-02
 * RMSD in coord.:     0.0372753 a0     energy gain  -0.6994670E+00 Eh

........................................................................
.............................. CYCLE   21 ..............................
........................................................................

 iter      E             dE          RMSdq      gap      omega  full diag
   1  -3770.8311168 -0.377083E+04  0.577E-03   10.69       0.0  T
   2  -3770.8311382 -0.213824E-04  0.367E-03   10.69       1.0  T
   3  -3770.8311384 -0.142727E-06  0.135E-03   10.69       1.2  T
   4  -3770.8311391 -0.705152E-06  0.363E-04   10.69       4.6  T
   5  -3770.8311392 -0.161386E-06  0.924E-05   10.69      18.2  T
     SCC iter.                  ...        5 min, 53.427 sec
     gradient                   ...        4 min, 27.888 sec
 * total energy  : -3716.0633723 Eh     change    :  -0.1312109E-02 Eh
   gradient norm :     0.1108266 Eh/a0  converged?    E=F G=F D=F
   time step     :     0.2500000 fs     power     :   0.2850321E-07
   step length   :     0.0745071 a0     speed     :   0.7208959E-02

........................................................................
.............................. CYCLE   22 ..............................
........................................................................

 iter      E             dE          RMSdq      gap      omega  full diag
   1  -3770.7865419 -0.377079E+04  0.475E-03   10.70       0.0  T
   2  -3770.7865519 -0.998774E-05  0.303E-03   10.70       1.0  T
   3  -3770.7865518  0.106078E-06  0.878E-04   10.70       1.9  T
   4  -3770.7865524 -0.547421E-06  0.248E-04   10.70       6.8  T
     SCC iter.                  ...        4 min, 43.552 sec
     gradient                   ...        4 min, 30.542 sec
 * total energy  : -3716.0649685 Eh     change    :  -0.1596159E-02 Eh
   gradient norm :     0.1226812 Eh/a0  converged?    E=F G=F D=F
   time step     :     0.2500000 fs     power     :   0.6169666E-07
   step length   :     0.0693732 a0     speed     :   0.6712233E-02

........................................................................
.............................. CYCLE   23 ..............................
........................................................................

 iter      E             dE          RMSdq      gap      omega  full diag
   1  -3770.7759447 -0.377078E+04  0.413E-03   10.71       0.0  T
   2  -3770.7759478 -0.304717E-05  0.258E-03   10.71       1.0  T
   3  -3770.7759476  0.126789E-06  0.403E-04   10.71       4.2  T
   4  -3770.7759480 -0.337292E-06  0.147E-04   10.71      11.4  T
     SCC iter.                  ...        4 min, 43.504 sec
     gradient                   ...        4 min, 27.621 sec
 * total energy  : -3716.0675099 Eh     change    :  -0.2541479E-02 Eh
   gradient norm :     0.1275531 Eh/a0  converged?    E=F G=F D=F
   time step     :     0.2500000 fs     power     :   0.1222340E-06
   step length   :     0.0658689 a0     speed     :   0.6373171E-02

........................................................................
.............................. CYCLE   24 ..............................
........................................................................

 iter      E             dE          RMSdq      gap      omega  full diag
   1  -3770.7969399 -0.377080E+04  0.405E-03   10.71       0.0  T
   2  -3770.7969404 -0.483404E-06  0.243E-03   10.71       1.0  T
   3  -3770.7969405 -0.899022E-07  0.179E-04   10.71       9.4  T
   4  -3770.7969406 -0.435430E-07  0.990E-05   10.71      17.0  T
     SCC iter.                  ...        4 min, 42.741 sec
     gradient                   ...        4 min, 28.585 sec
 * total energy  : -3716.0711994 Eh     change    :  -0.3689495E-02 Eh
   gradient norm :     0.1253571 Eh/a0  converged?    E=F G=F D=F
   time step     :     0.2500000 fs     power     :   0.1864209E-06
   step length   :     0.0645682 a0     speed     :   0.6247317E-02

........................................................................
.............................. CYCLE   25 ..............................
........................................................................

 iter      E             dE          RMSdq      gap      omega  full diag
   1  -3770.8462252 -0.377085E+04  0.439E-03   10.72       0.0  T
   2  -3770.8462265 -0.130291E-05  0.255E-03   10.72       1.0  T
   3  -3770.8462265 -0.244413E-07  0.360E-04   10.72       4.7  T
   4  -3770.8462267 -0.146523E-06  0.114E-04   10.72      14.8  T
     SCC iter.                  ...        4 min, 37.666 sec
     gradient                   ...        4 min, 31.047 sec
 * total energy  : -3716.0758763 Eh     change    :  -0.4676916E-02 Eh
   gradient norm :     0.1170506 Eh/a0  converged?    E=F G=F D=F
   time step     :     0.2500000 fs     power     :   0.2367809E-06
   step length   :     0.0652957 a0     speed     :   0.6317710E-02

........................................................................
.............................. CYCLE   26 ..............................
........................................................................

 iter      E             dE          RMSdq      gap      omega  full diag
   1  -3770.9288950 -0.377093E+04  0.547E-03   10.73       0.0  T
   2  -3770.9289005 -0.551225E-05  0.312E-03   10.73       1.0  T
   3  -3770.9289004  0.116332E-06  0.761E-04   10.73       2.2  T
   4  -3770.9289009 -0.465393E-06  0.170E-04   10.73       9.9  T
     SCC iter.                  ...        4 min, 44.062 sec
     gradient                   ...        4 min, 29.849 sec
 * total energy  : -3716.0817170 Eh     change    :  -0.5840638E-02 Eh
   gradient norm :     0.1027219 Eh/a0  converged?    E=F G=F D=F
   time step     :     0.2750000 fs     power     :   0.2629589E-06
   step length   :     0.0747440 a0     speed     :   0.6574438E-02

........................................................................
.............................. CYCLE   27 ..............................
........................................................................

 iter      E             dE          RMSdq      gap      omega  full diag
   1  -3771.0464637 -0.377105E+04  0.677E-03   10.73       0.0  T
   2  -3771.0464768 -0.130768E-04  0.383E-03   10.73       1.0  T
   3  -3771.0464766  0.170941E-06  0.113E-03   10.73       1.5  T
   4  -3771.0464774 -0.794847E-06  0.246E-04   10.73       6.8  T
   5  -3771.0464775 -0.958989E-07  0.118E-04   10.73      14.3  T
     SCC iter.                  ...        5 min, 50.603 sec
     gradient                   ...        4 min, 29.717 sec
 * total energy  : -3716.0881952 Eh     change    :  -0.6478255E-02 Eh
   gradient norm :     0.0847071 Eh/a0  converged?    E=F G=F D=F
   time step     :     0.3025000 fs     power     :   0.2547744E-06
   step length   :     0.0869355 a0     speed     :   0.6951637E-02

........................................................................
.............................. CYCLE   28 ..............................
........................................................................

 iter      E             dE          RMSdq      gap      omega  full diag
   1  -3771.1965462 -0.377120E+04  0.805E-03   10.74       0.0  T
   2  -3771.1965685 -0.222763E-04  0.453E-03   10.74       1.0  T
   3  -3771.1965683  0.166930E-06  0.143E-03   10.74       1.2  T
   4  -3771.1965694 -0.104740E-05  0.314E-04   10.74       5.3  T
   5  -3771.1965695 -0.158868E-06  0.131E-04   10.74      12.8  T
   6  -3771.1965696 -0.175037E-07  0.804E-05   10.74      20.9  T
     SCC iter.                  ...        7 min,  6.331 sec
     gradient                   ...        4 min, 30.277 sec
 * total energy  : -3716.0945171 Eh     change    :  -0.6321877E-02 Eh
   gradient norm :     0.0695415 Eh/a0  converged?    E=F G=F D=F
   time step     :     0.3327500 fs     power     :   0.2126795E-06
   step length   :     0.1012022 a0     speed     :   0.7356767E-02

........................................................................
.............................. CYCLE   29 ..............................
........................................................................

 iter      E             dE          RMSdq      gap      omega  full diag
   1  -3771.3679743 -0.377137E+04  0.891E-03   10.75       0.0  T
   2  -3771.3680018 -0.274568E-04  0.500E-03   10.75       1.0  T
   3  -3771.3680016  0.148009E-06  0.154E-03   10.75       1.1  T
   4  -3771.3680027 -0.109951E-05  0.346E-04   10.75       4.9  T
   5  -3771.3680029 -0.192363E-06  0.132E-04   10.75      12.8  T
   6  -3771.3680029 -0.143559E-07  0.765E-05   10.74      22.0  T
     SCC iter.                  ...        7 min,  4.754 sec
     gradient                   ...        4 min, 26.623 sec
 * total energy  : -3716.1000056 Eh     change    :  -0.5488495E-02 Eh
   gradient norm :     0.0669268 Eh/a0  converged?    E=F G=F D=F
   time step     :     0.3660250 fs     power     :   0.1563107E-06
   step length   :     0.1160282 a0     speed     :   0.7667751E-02

........................................................................
.............................. CYCLE   30 ..............................
........................................................................

 iter      E             dE          RMSdq      gap      omega  full diag
   1  -3771.5370219 -0.377154E+04  0.897E-03   10.75       0.0  T
   2  -3771.5370441 -0.221723E-04  0.501E-03   10.75       1.0  T
   3  -3771.5370440  0.191394E-07  0.134E-03   10.75       1.3  T
   4  -3771.5370448 -0.762051E-06  0.305E-04   10.75       5.5  T
   5  -3771.5370449 -0.143350E-06  0.126E-04   10.75      13.3  T
     SCC iter.                  ...        5 min, 48.517 sec
     gradient                   ...        4 min, 29.422 sec
 * total energy  : -3716.1047321 Eh     change    :  -0.4726519E-02 Eh
   gradient norm :     0.0753239 Eh/a0  converged?    E=F G=F D=F
   time step     :     0.4026275 fs     power     :   0.1205028E-06
   step length   :     0.1291806 a0     speed     :   0.7760843E-02

........................................................................
.............................. CYCLE   31 ..............................
........................................................................

 iter      E             dE          RMSdq      gap      omega  full diag
   1  -3771.6765033 -0.377168E+04  0.836E-03   10.76       0.0  T
   2  -3771.6765133 -0.100154E-04  0.471E-03   10.76       1.0  T
   3  -3771.6765136 -0.269451E-06  0.850E-04   10.76       2.0  T
   4  -3771.6765138 -0.228410E-06  0.199E-04   10.76       8.5  T
     SCC iter.                  ...        4 min, 43.441 sec
     gradient                   ...        4 min, 28.099 sec
 * total energy  : -3716.1096179 Eh     change    :  -0.4885789E-02 Eh
   gradient norm :     0.0816264 Eh/a0  converged?    E=F G=F D=F
   time step     :     0.4428903 fs     power     :   0.1218025E-06
   step length   :     0.1411652 a0     speed     :   0.7709860E-02

........................................................................
.............................. CYCLE   32 ..............................
........................................................................

 iter      E             dE          RMSdq      gap      omega  full diag
   1  -3771.7638701 -0.377176E+04  0.773E-03   10.77       0.0  T
   2  -3771.7638727 -0.258587E-05  0.453E-03   10.77       1.0  T
   3  -3771.7638726  0.112340E-06  0.599E-04   10.77       2.8  T
   4  -3771.7638733 -0.649296E-06  0.184E-04   10.77       9.1  T
     SCC iter.                  ...        4 min, 37.394 sec
     gradient                   ...        4 min, 28.332 sec
 * total energy  : -3716.1155744 Eh     change    :  -0.5956477E-02 Eh
   gradient norm :     0.0774768 Eh/a0  converged?    E=F G=F D=F
   time step     :     0.4871793 fs     power     :   0.1411973E-06
   step length   :     0.1552886 a0     speed     :   0.7710202E-02

........................................................................
.............................. CYCLE   33 ..............................
........................................................................

 iter      E             dE          RMSdq      gap      omega  full diag
   1  -3771.7847091 -0.377178E+04  0.775E-03   10.77       0.0  T
   2  -3771.7847196 -0.104927E-04  0.485E-03   10.77       1.0  T
   3  -3771.7847182  0.138486E-05  0.113E-03   10.77       1.5  T
   4  -3771.7847207 -0.256513E-05  0.225E-04   10.78       7.5  T
   5  -3771.7847208 -0.369964E-07  0.126E-04   10.78      13.3  T
   6  -3771.7847208 -0.849059E-08  0.553E-05   10.78      30.4  T
     SCC iter.                  ...        6 min, 57.398 sec
     gradient                   ...        4 min, 25.773 sec
 * total energy  : -3716.1224644 Eh     change    :  -0.6889979E-02 Eh
   gradient norm :     0.0643844 Eh/a0  converged?    E=F G=F D=F
   time step     :     0.5358972 fs     power     :   0.1425879E-06
   step length   :     0.1739413 a0     speed     :   0.7851205E-02

........................................................................
.............................. CYCLE   34 ..............................
........................................................................

 iter      E             dE          RMSdq      gap      omega  full diag
   1  -3771.7418923 -0.377174E+04  0.838E-03   10.79       0.0  T
   2  -3771.7419225 -0.302661E-04  0.545E-03   10.79       1.0  T
   3  -3771.7419219  0.618014E-06  0.168E-03   10.79       1.0  T
   4  -3771.7419243 -0.237025E-05  0.398E-04   10.79       4.2  T
   5  -3771.7419245 -0.218505E-06  0.157E-04   10.79      10.7  T
   6  -3771.7419245 -0.172217E-07  0.840E-05   10.79      20.0  T
     SCC iter.                  ...        6 min, 51.104 sec
     gradient                   ...        4 min, 26.436 sec
 * total energy  : -3716.1290534 Eh     change    :  -0.6588980E-02 Eh
   gradient norm :     0.0568730 Eh/a0  converged?    E=F G=F D=F
   time step     :     0.5894869 fs     power     :   0.1111690E-06
   step length   :     0.1963601 a0     speed     :   0.8057387E-02

........................................................................
.............................. CYCLE   35 ..............................
........................................................................

 iter      E             dE          RMSdq      gap      omega  full diag
   1  -3771.6739684 -0.377167E+04  0.890E-03   10.80       0.0  T
   2  -3771.6740032 -0.347905E-04  0.571E-03   10.80       1.0  T
   3  -3771.6740031  0.129712E-06  0.161E-03   10.80       1.0  T
   4  -3771.6740047 -0.162502E-05  0.490E-04   10.80       3.4  T
   5  -3771.6740050 -0.298416E-06  0.173E-04   10.80       9.7  T
   6  -3771.6740050 -0.160558E-07  0.778E-05   10.80      21.6  T
     SCC iter.                  ...        6 min, 59.611 sec
     gradient                   ...        4 min, 26.257 sec
 * total energy  : -3716.1347522 Eh     change    :  -0.5698855E-02 Eh
   gradient norm :     0.0631445 Eh/a0  converged?    E=F G=F D=F
   time step     :     0.6484356 fs     power     :   0.8310567E-07
   step length   :     0.2182055 a0     speed     :   0.8139804E-02

........................................................................
.............................. CYCLE   36 ..............................
........................................................................

 iter      E             dE          RMSdq      gap      omega  full diag
   1  -3771.6427574 -0.377164E+04  0.986E-03   10.82       0.0  T
   2  -3771.6427726 -0.151216E-04  0.593E-03   10.82       1.0  T
   3  -3771.6427733 -0.758465E-06  0.880E-04   10.82       1.9  T
   4  -3771.6427738 -0.437793E-06  0.317E-04   10.82       5.3  T
     SCC iter.                  ...        4 min, 40.391 sec
     gradient                   ...        4 min, 26.097 sec
 * total energy  : -3716.1407341 Eh     change    :  -0.5981913E-02 Eh
   gradient norm :     0.0634528 Eh/a0  converged?    E=F G=F D=F
   time step     :     0.7132792 fs     power     :   0.8605188E-07
   step length   :     0.2387869 a0     speed     :   0.8097780E-02

........................................................................
.............................. CYCLE   37 ..............................
........................................................................

 iter      E             dE          RMSdq      gap      omega  full diag
   1  -3771.6937125 -0.377169E+04  0.119E-02   10.85       0.0  T
   2  -3771.6937205 -0.803065E-05  0.690E-03   10.85       1.0  T
   3  -3771.6937203  0.173759E-06  0.121E-03   10.85       1.4  T
   4  -3771.6937223 -0.200283E-05  0.343E-04   10.85       4.9  T
   5  -3771.6937223 -0.165805E-07  0.127E-04   10.85      13.2  T
   6  -3771.6937223 -0.651607E-08  0.343E-05   10.85      49.0  T
     SCC iter.                  ...        6 min, 58.051 sec
     gradient                   ...        4 min, 28.821 sec
 * total energy  : -3716.1473507 Eh     change    :  -0.6616560E-02 Eh
   gradient norm :     0.0516700 Eh/a0  converged?    E=F G=F D=F
   time step     :     0.7846071 fs     power     :   0.8086432E-07
   step length   :     0.2637999 a0     speed     :   0.8132753E-02

........................................................................
.............................. CYCLE   38 ..............................
........................................................................

 iter      E             dE          RMSdq      gap      omega  full diag
   1  -3771.8251030 -0.377183E+04  0.132E-02   10.87       0.0  T
   2  -3771.8251269 -0.238486E-04  0.762E-03   10.87       1.0  T
   3  -3771.8251257  0.114023E-05  0.172E-03   10.87       1.0  T
   4  -3771.8251291 -0.340256E-05  0.362E-04   10.87       4.6  T
   5  -3771.8251292 -0.112640E-06  0.182E-04   10.87       9.2  T
   6  -3771.8251293 -0.131513E-07  0.674E-05   10.87      24.9  T
     SCC iter.                  ...        7 min,  8.887 sec
     gradient                   ...        4 min, 30.882 sec
 * total energy  : -3716.1528679 Eh     change    :  -0.5517224E-02 Eh
   gradient norm :     0.0528138 Eh/a0  converged?    E=F G=F D=F
   time step     :     0.8630678 fs     power     :   0.4680535E-07
   step length   :     0.2919350 a0     speed     :   0.8181941E-02

........................................................................
.............................. CYCLE   39 ..............................
........................................................................

 iter      E             dE          RMSdq      gap      omega  full diag
   1  -3771.9596923 -0.377196E+04  0.118E-02   10.90       0.0  T
   2  -3771.9597065 -0.141644E-04  0.684E-03   10.90       1.0  T
   3  -3771.9597068 -0.376404E-06  0.103E-03   10.90       1.6  T
   4  -3771.9597076 -0.793039E-06  0.275E-04   10.90       6.1  T
   5  -3771.9597077 -0.469654E-07  0.147E-04   10.90      11.5  T
     SCC iter.                  ...        5 min, 52.141 sec
     gradient                   ...        4 min, 30.587 sec
 * total energy  : -3716.1578426 Eh     change    :  -0.4974672E-02 Eh
   gradient norm :     0.0580802 Eh/a0  converged?    E=F G=F D=F
   time step     :     0.9493746 fs     power     :   0.4257016E-07
   step length   :     0.3155048 a0     speed     :   0.8038658E-02

........................................................................
.............................. CYCLE   40 ..............................
........................................................................

 iter      E             dE          RMSdq      gap      omega  full diag
   1  -3772.0275041 -0.377203E+04  0.114E-02   10.92       0.0  T
   2  -3772.0275193 -0.151892E-04  0.681E-03   10.92       1.0  T
   3  -3772.0275174  0.181804E-05  0.154E-03   10.92       1.1  T
   4  -3772.0275218 -0.433945E-05  0.335E-04   10.92       5.0  T
   5  -3772.0275218 -0.401178E-07  0.182E-04   10.92       9.2  T
   6  -3772.0275218 -0.182363E-07  0.722E-05   10.92      23.3  T
     SCC iter.                  ...        7 min,  8.513 sec
     gradient                   ...        4 min, 30.113 sec
 * total energy  : -3716.1637886 Eh     change    :  -0.5946018E-02 Eh
   gradient norm :     0.0492273 Eh/a0  converged?    E=F G=F D=F
   time step     :     1.0443120 fs     power     :   0.4618361E-07
   step length   :     0.3433341 a0     speed     :   0.7952464E-02

........................................................................
.............................. CYCLE   41 ..............................
........................................................................

 iter      E             dE          RMSdq      gap      omega  full diag
   1  -3772.0456773 -0.377205E+04  0.125E-02   10.94       0.0  T
   2  -3772.0457089 -0.315767E-04  0.772E-03   10.94       1.0  T
   3  -3772.0457070  0.189242E-05  0.178E-03   10.94       1.0  T
   4  -3772.0457120 -0.493599E-05  0.431E-04   10.95       3.9  T
   5  -3772.0457121 -0.177302E-06  0.231E-04   10.95       7.3  T
   6  -3772.0457122 -0.386185E-07  0.111E-04   10.95      15.2  T
     SCC iter.                  ...        7 min,  5.685 sec
     gradient                   ...        4 min, 29.916 sec
 * total energy  : -3716.1689264 Eh     change    :  -0.5137797E-02 Eh
   gradient norm :     0.0494583 Eh/a0  converged?    E=F G=F D=F
   time step     :     1.1487432 fs     power     :   0.2333304E-07
   step length   :     0.3764829 a0     speed     :   0.7927520E-02

........................................................................
.............................. CYCLE   42 ..............................
........................................................................

 iter      E             dE          RMSdq      gap      omega  full diag
   1  -3772.1103915 -0.377211E+04  0.139E-02   10.97       0.0  T
   2  -3772.1103998 -0.830530E-05  0.807E-03   10.98       1.0  T
   3  -3772.1104001 -0.324364E-06  0.997E-04   10.98       1.7  T
   4  -3772.1104012 -0.112014E-05  0.318E-04   10.98       5.3  T
   5  -3772.1104013 -0.269360E-07  0.157E-04   10.98      10.7  T
     SCC iter.                  ...        5 min, 54.930 sec
     gradient                   ...        4 min, 28.961 sec
 * total energy  : -3716.1731252 Eh     change    :  -0.4198767E-02 Eh
   gradient norm :     0.0472634 Eh/a0  converged?    E=F G=F D=F
   time step     :     1.2500000 fs     power     :   0.1140059E-07
   step length   :     0.4008919 a0     speed     :   0.7757688E-02
 * RMSD in coord.:     0.0597696 a0     energy gain  -0.1110650E+00 Eh

........................................................................
.............................. CYCLE   43 ..............................
........................................................................

 iter      E             dE          RMSdq      gap      omega  full diag
   1  -3772.1239351 -0.377212E+04  0.235E-03   10.98       0.0  T
   2  -3772.1239353 -0.272137E-06  0.136E-03   10.98       1.2  T
   3  -3772.1239353  0.789714E-08  0.198E-04   10.98       8.5  T
   4  -3772.1239354 -0.530522E-07  0.537E-05   10.98      31.3  T
     SCC iter.                  ...        4 min, 40.492 sec
     gradient                   ...        4 min, 28.714 sec
 * total energy  : -3716.1737503 Eh     change    :  -0.6251578E-03 Eh
   gradient norm :     0.0474493 Eh/a0  converged?    E=F G=F D=F
   time step     :     0.2500000 fs     power     :   0.2904757E-07
   step length   :     0.0735646 a0     speed     :   0.7117772E-02

........................................................................
.............................. CYCLE   44 ..............................
........................................................................

 iter      E             dE          RMSdq      gap      omega  full diag
   1  -3772.1369631 -0.377214E+04  0.227E-03   10.99       0.0  T
   2  -3772.1369637 -0.548077E-06  0.133E-03   10.99       1.3  T
   3  -3772.1369637  0.225727E-07  0.239E-04   10.99       7.0  T
   4  -3772.1369637 -0.704390E-07  0.508E-05   10.99      33.1  T
     SCC iter.                  ...        4 min, 41.561 sec
     gradient                   ...        4 min, 29.637 sec
 * total energy  : -3716.1746431 Eh     change    :  -0.8928205E-03 Eh
   gradient norm :     0.0438620 Eh/a0  converged?    E=F G=F D=F
   time step     :     0.2500000 fs     power     :   0.4311514E-07
   step length   :     0.0685327 a0     speed     :   0.6630903E-02

........................................................................
.............................. CYCLE   45 ..............................
........................................................................

 iter      E             dE          RMSdq      gap      omega  full diag
   1  -3772.1478163 -0.377215E+04  0.244E-03   11.00       0.0  T
   2  -3772.1478171 -0.873288E-06  0.146E-03   11.00       1.1  T
   3  -3772.1478171  0.115210E-07  0.271E-04   11.00       6.2  T
   4  -3772.1478172 -0.762966E-07  0.631E-05   11.00      26.7  T
     SCC iter.                  ...        4 min, 41.321 sec
     gradient                   ...        4 min, 29.261 sec
 * total energy  : -3716.1756767 Eh     change    :  -0.1033527E-02 Eh
   gradient norm :     0.0376209 Eh/a0  converged?    E=F G=F D=F
   time step     :     0.2500000 fs     power     :   0.4896312E-07
   step length   :     0.0648636 a0     speed     :   0.6275899E-02

........................................................................
.............................. CYCLE   46 ..............................
........................................................................

 iter      E             dE          RMSdq      gap      omega  full diag
   1  -3772.1547401 -0.377215E+04  0.269E-03   11.00       0.0  T
   2  -3772.1547412 -0.106670E-05  0.163E-03   11.00       1.0  T
   3  -3772.1547412 -0.675027E-08  0.285E-04   11.00       5.9  T
   4  -3772.1547413 -0.802434E-07  0.743E-05   11.00      22.6  T
     SCC iter.                  ...        4 min, 44.204 sec
     gradient                   ...        4 min, 28.053 sec
 * total energy  : -3716.1766865 Eh     change    :  -0.1009846E-02 Eh
   gradient norm :     0.0305000 Eh/a0  converged?    E=F G=F D=F
   time step     :     0.2500000 fs     power     :   0.4576597E-07
   step length   :     0.0621853 a0     speed     :   0.6016766E-02

........................................................................
.............................. CYCLE   47 ..............................
........................................................................

 iter      E             dE          RMSdq      gap      omega  full diag
   1  -3772.1559569 -0.377216E+04  0.288E-03   11.01       0.0  T
   2  -3772.1559580 -0.103295E-05  0.174E-03   11.01       1.0  T
   3  -3772.1559580 -0.236359E-07  0.278E-04   11.01       6.0  T
   4  -3772.1559581 -0.836153E-07  0.823E-05   11.01      20.4  T
     SCC iter.                  ...        4 min, 37.071 sec
     gradient                   ...        4 min, 26.758 sec
 * total energy  : -3716.1775365 Eh     change    :  -0.8500134E-03 Eh
   gradient norm :     0.0251300 Eh/a0  converged?    E=F G=F D=F
   time step     :     0.2500000 fs     power     :   0.3607696E-07
   step length   :     0.0600313 a0     speed     :   0.5808355E-02

........................................................................
.............................. CYCLE   48 ..............................
........................................................................

 iter      E             dE          RMSdq      gap      omega  full diag
   1  -3772.1495115 -0.377215E+04  0.320E-03   11.01       0.0  T
   2  -3772.1495125 -0.975409E-06  0.192E-03   11.01       1.0  T
   3  -3772.1495125 -0.298264E-07  0.294E-04   11.01       5.7  T
   4  -3772.1495126 -0.114194E-06  0.959E-05   11.01      17.5  T
     SCC iter.                  ...        4 min, 37.556 sec
     gradient                   ...        4 min, 27.929 sec
 * total energy  : -3716.1782228 Eh     change    :  -0.6862360E-03 Eh
   gradient norm :     0.0241207 Eh/a0  converged?    E=F G=F D=F
   time step     :     0.2750000 fs     power     :   0.2357235E-07
   step length   :     0.0636508 a0     speed     :   0.5598685E-02

........................................................................
.............................. CYCLE   49 ..............................
........................................................................

 iter      E             dE          RMSdq      gap      omega  full diag
   1  -3772.1346813 -0.377213E+04  0.326E-03   11.01       0.0  T
   2  -3772.1346821 -0.817201E-06  0.192E-03   11.01       1.0  T
   3  -3772.1346821 -0.797036E-08  0.316E-04   11.01       5.3  T
   4  -3772.1346822 -0.156761E-06  0.101E-04   11.01      16.6  T
     SCC iter.                  ...        4 min, 43.524 sec
     gradient                   ...        4 min, 27.255 sec
 * total energy  : -3716.1787442 Eh     change    :  -0.5214236E-03 Eh
   gradient norm :     0.0274071 Eh/a0  converged?    E=F G=F D=F
   time step     :     0.3025000 fs     power     :   0.1497074E-07
   step length   :     0.0664981 a0     speed     :   0.5317394E-02

........................................................................
.............................. CYCLE   50 ..............................
........................................................................

 iter      E             dE          RMSdq      gap      omega  full diag
   1  -3772.1135874 -0.377211E+04  0.314E-03   11.02       0.0  T
   2  -3772.1135882 -0.788868E-06  0.181E-03   11.02       1.0  T
   3  -3772.1135882  0.120262E-07  0.328E-04   11.02       5.1  T
   4  -3772.1135884 -0.167244E-06  0.944E-05   11.02      17.8  T
     SCC iter.                  ...        4 min, 33.496 sec
     gradient                   ...        4 min, 29.107 sec
 * total energy  : -3716.1792204 Eh     change    :  -0.4761825E-03 Eh
   gradient norm :     0.0311344 Eh/a0  converged?    E=F G=F D=F
   time step     :     0.3327500 fs     power     :   0.1352199E-07
   step length   :     0.0685633 a0     speed     :   0.4984124E-02

........................................................................
.............................. CYCLE   51 ..............................
........................................................................

 iter      E             dE          RMSdq      gap      omega  full diag
   1  -3772.0895564 -0.377209E+04  0.302E-03   11.02       0.0  T
   2  -3772.0895573 -0.933343E-06  0.172E-03   11.02       1.0  T
   3  -3772.0895573  0.130808E-07  0.326E-04   11.02       5.2  T
   4  -3772.0895574 -0.135804E-06  0.812E-05   11.02      20.7  T
     SCC iter.                  ...        4 min, 37.158 sec
     gradient                   ...        4 min, 25.727 sec
 * total energy  : -3716.1798027 Eh     change    :  -0.5823203E-03 Eh
   gradient norm :     0.0325835 Eh/a0  converged?    E=F G=F D=F
   time step     :     0.3660250 fs     power     :   0.1732560E-07
   step length   :     0.0707592 a0     speed     :   0.4676137E-02

........................................................................
.............................. CYCLE   52 ..............................
........................................................................

 iter      E             dE          RMSdq      gap      omega  full diag
   1  -3772.0664925 -0.377207E+04  0.309E-03   11.03       0.0  T
   2  -3772.0664936 -0.112901E-05  0.178E-03   11.03       1.0  T
   3  -3772.0664936  0.720274E-08  0.318E-04   11.03       5.3  T
   4  -3772.0664937 -0.986302E-07  0.695E-05   11.03      24.2  T
     SCC iter.                  ...        4 min, 35.058 sec
     gradient                   ...        4 min, 26.487 sec
 * total energy  : -3716.1805779 Eh     change    :  -0.7752269E-03 Eh
   gradient norm :     0.0309511 Eh/a0  converged?    E=F G=F D=F
   time step     :     0.4026275 fs     power     :   0.2208379E-07
   step length   :     0.0739413 a0     speed     :   0.4442205E-02

........................................................................
.............................. CYCLE   53 ..............................
........................................................................

 iter      E             dE          RMSdq      gap      omega  full diag
   1  -3772.0489383 -0.377205E+04  0.341E-03   11.03       0.0  T
   2  -3772.0489395 -0.117481E-05  0.198E-03   11.03       1.0  T
   3  -3772.0489395 -0.262207E-08  0.301E-04   11.03       5.6  T
   4  -3772.0489395 -0.811874E-07  0.642E-05   11.03      26.2  T
     SCC iter.                  ...        4 min, 35.146 sec
     gradient                   ...        4 min, 26.607 sec
 * total energy  : -3716.1815152 Eh     change    :  -0.9372898E-03 Eh
   gradient norm :     0.0270067 Eh/a0  converged?    E=F G=F D=F
   time step     :     0.4428903 fs     power     :   0.2372230E-07
   step length   :     0.0785876 a0     speed     :   0.4292133E-02

........................................................................
.............................. CYCLE   54 ..............................
........................................................................

 iter      E             dE          RMSdq      gap      omega  full diag
   1  -3772.0418527 -0.377204E+04  0.379E-03   11.03       0.0  T
   2  -3772.0418537 -0.958525E-06  0.223E-03   11.03       1.0  T
   3  -3772.0418537 -0.558748E-08  0.287E-04   11.03       5.9  T
   4  -3772.0418538 -0.104907E-06  0.784E-05   11.03      21.4  T
     SCC iter.                  ...        4 min, 39.703 sec
     gradient                   ...        4 min, 25.406 sec
 * total energy  : -3716.1824790 Eh     change    :  -0.9638339E-03 Eh
   gradient norm :     0.0231570 Eh/a0  converged?    E=F G=F D=F
   time step     :     0.4871793 fs     power     :   0.2060544E-07
   step length   :     0.0846103 a0     speed     :   0.4200972E-02

........................................................................
.............................. CYCLE   55 ..............................
........................................................................

 iter      E             dE          RMSdq      gap      omega  full diag
   1  -3772.0488824 -0.377205E+04  0.398E-03   11.03       0.0  T
   2  -3772.0488832 -0.780027E-06  0.235E-03   11.03       1.0  T
   3  -3772.0488832  0.209707E-07  0.320E-04   11.03       5.3  T
   4  -3772.0488834 -0.180446E-06  0.102E-04   11.03      16.6  T
     SCC iter.                  ...        4 min, 35.189 sec
     gradient                   ...        4 min, 27.901 sec
 * total energy  : -3716.1833307 Eh     change    :  -0.8516268E-03 Eh
   gradient norm :     0.0222433 Eh/a0  converged?    E=F G=F D=F
   time step     :     0.5358972 fs     power     :   0.1493723E-07
   step length   :     0.0911966 a0     speed     :   0.4116348E-02

........................................................................
.............................. CYCLE   56 ..............................
........................................................................

 iter      E             dE          RMSdq      gap      omega  full diag
   1  -3772.0684428 -0.377207E+04  0.380E-03   11.04       0.0  T
   2  -3772.0684440 -0.116722E-05  0.224E-03   11.04       1.0  T
   3  -3772.0684440  0.222690E-07  0.369E-04   11.04       4.6  T
   4  -3772.0684442 -0.197473E-06  0.112E-04   11.04      15.0  T
     SCC iter.                  ...        4 min, 36.231 sec
     gradient                   ...        4 min, 25.314 sec
 * total energy  : -3716.1840636 Eh     change    :  -0.7329767E-03 Eh
   gradient norm :     0.0240987 Eh/a0  converged?    E=F G=F D=F
   time step     :     0.5894869 fs     power     :   0.1116162E-07
   step length   :     0.0972525 a0     speed     :   0.3990632E-02

........................................................................
.............................. CYCLE   57 ..............................
........................................................................

 iter      E             dE          RMSdq      gap      omega  full diag
   1  -3772.0929379 -0.377209E+04  0.349E-03   11.04       0.0  T
   2  -3772.0929395 -0.168653E-05  0.205E-03   11.04       1.0  T
   3  -3772.0929396 -0.174005E-07  0.390E-04   11.04       4.3  T
   4  -3772.0929397 -0.127960E-06  0.106E-04   11.04      15.9  T
     SCC iter.                  ...        4 min, 37.521 sec
     gradient                   ...        4 min, 25.725 sec
 * total energy  : -3716.1848294 Eh     change    :  -0.7657316E-03 Eh
   gradient norm :     0.0260587 Eh/a0  converged?    E=F G=F D=F
   time step     :     0.6484356 fs     power     :   0.1168817E-07
   step length   :     0.1030194 a0     speed     :   0.3842973E-02

........................................................................
.............................. CYCLE   58 ..............................
........................................................................

 iter      E             dE          RMSdq      gap      omega  full diag
   1  -3772.1122446 -0.377211E+04  0.341E-03   11.05       0.0  T
   2  -3772.1122460 -0.140523E-05  0.200E-03   11.05       1.0  T
   3  -3772.1122460 -0.462269E-07  0.338E-04   11.05       5.0  T
   4  -3772.1122461 -0.783089E-07  0.924E-05   11.05      18.2  T
     SCC iter.                  ...        4 min, 41.610 sec
     gradient                   ...        4 min, 28.011 sec
 * total energy  : -3716.1858174 Eh     change    :  -0.9880563E-03 Eh
   gradient norm :     0.0256491 Eh/a0  converged?    E=F G=F D=F
   time step     :     0.7132792 fs     power     :   0.1513489E-07
   step length   :     0.1101499 a0     speed     :   0.3735423E-02

........................................................................
.............................. CYCLE   59 ..............................
........................................................................

 iter      E             dE          RMSdq      gap      omega  full diag
   1  -3772.1169192 -0.377212E+04  0.379E-03   11.05       0.0  T
   2  -3772.1169200 -0.795346E-06  0.221E-03   11.05       1.0  T
   3  -3772.1169200 -0.744189E-07  0.294E-04   11.05       5.7  T
   4  -3772.1169201 -0.820050E-07  0.103E-04   11.05      16.4  T
     SCC iter.                  ...        4 min, 38.515 sec
     gradient                   ...        4 min, 26.601 sec
 * total energy  : -3716.1870555 Eh     change    :  -0.1238108E-02 Eh
   gradient norm :     0.0221181 Eh/a0  converged?    E=F G=F D=F
   time step     :     0.7846071 fs     power     :   0.1697070E-07
   step length   :     0.1202397 a0     speed     :   0.3706899E-02

........................................................................
.............................. CYCLE   60 ..............................
........................................................................

 iter      E             dE          RMSdq      gap      omega  full diag
   1  -3772.1017188 -0.377210E+04  0.439E-03   11.05       0.0  T
   2  -3772.1017204 -0.156118E-05  0.256E-03   11.05       1.0  T
   3  -3772.1017205 -0.830219E-07  0.416E-04   11.05       4.0  T
   4  -3772.1017206 -0.143194E-06  0.121E-04   11.05      13.9  T
     SCC iter.                  ...        4 min, 36.661 sec
     gradient                   ...        4 min, 26.950 sec
 * total energy  : -3716.1883155 Eh     change    :  -0.1259932E-02 Eh
   gradient norm :     0.0203241 Eh/a0  converged?    E=F G=F D=F
   time step     :     0.8630678 fs     power     :   0.1403112E-07
   step length   :     0.1331903 a0     speed     :   0.3732870E-02

........................................................................
.............................. CYCLE   61 ..............................
........................................................................

 iter      E             dE          RMSdq      gap      omega  full diag
   1  -3772.0726102 -0.377207E+04  0.448E-03   11.06       0.0  T
   2  -3772.0726127 -0.246351E-05  0.258E-03   11.06       1.0  T
   3  -3772.0726128 -0.836808E-07  0.500E-04   11.06       3.4  T
   4  -3772.0726129 -0.149461E-06  0.120E-04   11.06      14.0  T
     SCC iter.                  ...        4 min, 33.802 sec
     gradient                   ...        4 min, 27.802 sec
 * total energy  : -3716.1895234 Eh     change    :  -0.1207918E-02 Eh
   gradient norm :     0.0229584 Eh/a0  converged?    E=F G=F D=F
   time step     :     0.9493746 fs     power     :   0.1242586E-07
   step length   :     0.1465310 a0     speed     :   0.3733420E-02

........................................................................
.............................. CYCLE   62 ..............................
........................................................................

 iter      E             dE          RMSdq      gap      omega  full diag
   1  -3772.0482566 -0.377205E+04  0.426E-03   11.06       0.0  T
   2  -3772.0482584 -0.177048E-05  0.245E-03   11.06       1.0  T
   3  -3772.0482585 -0.998712E-07  0.441E-04   11.06       3.8  T
   4  -3772.0482586 -0.125146E-06  0.120E-04   11.06      14.1  T
     SCC iter.                  ...        4 min, 31.983 sec
     gradient                   ...        4 min, 25.684 sec
 * total energy  : -3716.1909863 Eh     change    :  -0.1462893E-02 Eh
   gradient norm :     0.0211104 Eh/a0  converged?    E=F G=F D=F
   time step     :     1.0443120 fs     power     :   0.1488861E-07
   step length   :     0.1611904 a0     speed     :   0.3733567E-02

........................................................................
.............................. CYCLE   63 ..............................
........................................................................

[...]
  3284   6 C     3286   6 C                                       1.5350843
  3286   6 C     3287   6 C                                       1.5348503
  3287   6 C     3288   6 C                                       1.5274640
  3287   6 C     3289   6 C                                       1.5356926
  3289   6 C     3290   6 C                                       1.5352934
  3290   6 C     3291   6 C                                       1.5287929
  3290   6 C     3292   6 C                                       1.5362867
  3292   6 C     3293   6 C                                       1.5385973
  3293   6 C     3294   6 C                                       1.5276954
  3293   6 C     3295   6 C                                       1.5350286
  3295   6 C     3296   6 C                                       1.5298528
  3296   6 C     3297   6 C                                       1.5287363
  3296   6 C     3298   6 C                                       1.5353359
  3298   6 C     3299   6 C                                       1.5347231
  3299   6 C     3300   6 C                                       1.5283577
  3299   6 C     3301   6 C                                       1.5369688
  3301   6 C     3302   6 C                                       1.5332712
  3302   6 C     3303   6 C                                       1.5285497
  3302   6 C     3304   6 C                                       1.5362796
  3304   6 C     3305   6 C                                       1.5334659
  3305   6 C     3306   6 C                                       1.5285125
  3305   6 C     3307   6 C                                       1.5358703
  3307   6 C     3308   6 C                                       1.5335345
  3308   6 C     3309   6 C                                       1.5274041
  3308   6 C     3310   6 C                                       1.5391242
  3310   6 C     3311   6 C                                       1.5339685
  3311   6 C     3312   6 C                                       1.5284284
  3313   6 C     3314   6 C                                       1.5325130
  3314   6 C     3315   6 C                                       1.5272073
  3314   6 C     3316   6 C                                       1.5351352
  3316   6 C     3317   6 C                                       1.5362238
  3317   6 C     3318   6 C                                       1.5253109
  3317   6 C     3319   6 C                                       1.5354058
  3319   6 C     3320   6 C                                       1.5358713
  3320   6 C     3321   6 C                                       1.5290102
  3320   6 C     3322   6 C                                       1.5331613
  3322   6 C     3323   6 C                                       1.5359701
  3323   6 C     3324   6 C                                       1.5289661
  3323   6 C     3325   6 C                                       1.5340752
  3325   6 C     3326   6 C                                       1.5393994
  3326   6 C     3327   6 C                                       1.5297135
  3326   6 C     3328   6 C                                       1.5354830
  3328   6 C     3329   6 C                                       1.5317393
  3329   6 C     3330   6 C                                       1.5294780
  3329   6 C     3331   6 C                                       1.5365579
  3331   6 C     3332   6 C                                       1.5347818
  3332   6 C     3333   6 C                                       1.5282206
  3334   6 C     3335   6 C                                       1.5378182
  3335   6 C     3336   6 C                                       1.5267518
  3335   6 C     3337   6 C                                       1.5357762
  3338   6 C     3339   6 C                                       1.5282684
  3338   6 C     3340   6 C                                       1.5349087
  3340   6 C     3341   6 C                                       1.5327119
  3341   6 C     3342   6 C                                       1.5288881
  3341   6 C     3343   6 C                                       1.5371591
  3344   6 C     3345   6 C                                       1.5291571
  3344   6 C     3346   6 C                                       1.5338223
  3346   6 C     3347   6 C                                       1.5368867
  3347   6 C     3348   6 C                                       1.5285705
  3347   6 C     3349   6 C                                       1.5335931
  3349   6 C     3350   6 C                                       1.5342975
  3350   6 C     3351   6 C                                       1.5291763
  3350   6 C     3352   6 C                                       1.5316235
  3352   6 C     3353   6 C                                       1.5276357
  3353   6 C     3354   6 C                                       1.5238302
  3265   6 C     3355   1 H                                       1.0886314
  3265   6 C     3356   1 H                                       1.0876980
  3265   6 C     3357   1 H                                       1.0877962
  3354   6 C     3358   1 H                                       1.0877055
  3354   6 C     3359   1 H                                       1.0879219
  3354   6 C     3360   1 H                                       1.0882340
  3352   6 C     3361   1 H                                       1.0913660
  3352   6 C     3362   1 H                                       1.0934294
  3349   6 C     3363   1 H                                       1.0922536
  3349   6 C     3364   1 H                                       1.0919712
  3347   6 C     3365   1 H                                       1.0941889
  3348   6 C     3366   1 H                                       1.0875587
  3348   6 C     3367   1 H                                       1.0864436
  3348   6 C     3368   1 H                                       1.0875424
  3346   6 C     3369   1 H                                       1.0925625
  3346   6 C     3370   1 H                                       1.0914015
  3343   6 C     3371   1 H                                       1.0918536
  3343   6 C     3372   1 H                                       1.0922153
  3350   6 C     3373   1 H                                       1.0948431
  3351   6 C     3374   1 H                                       1.0886389
  3351   6 C     3375   1 H                                       1.0883865
  3351   6 C     3376   1 H                                       1.0873165
  3344   6 C     3377   1 H                                       1.0936620
  3345   6 C     3378   1 H                                       1.0885518
  3345   6 C     3379   1 H                                       1.0874385
  3345   6 C     3380   1 H                                       1.0882575
  3341   6 C     3381   1 H                                       1.0953927
  3342   6 C     3382   1 H                                       1.0887850
  3342   6 C     3383   1 H                                       1.0877246
  3342   6 C     3384   1 H                                       1.0868803
  3340   6 C     3385   1 H                                       1.0883356
  3340   6 C     3386   1 H                                       1.0943323
  3338   6 C     3387   1 H                                       1.0970564
  3339   6 C     3388   1 H                                       1.0871964
  3339   6 C     3389   1 H                                       1.0881447
  3339   6 C     3390   1 H                                       1.0866544
  3337   6 C     3391   1 H                                       1.0919896
  3337   6 C     3392   1 H                                       1.0923248
  3335   6 C     3393   1 H                                       1.0931904
  3336   6 C     3394   1 H                                       1.0886839
  3336   6 C     3395   1 H                                       1.0889977
  3336   6 C     3396   1 H                                       1.0838651
  3334   6 C     3397   1 H                                       1.0927028
  3334   6 C     3398   1 H                                       1.0920218
  3332   6 C     3399   1 H                                       1.0939342
  3333   6 C     3400   1 H                                       1.0885589
  3333   6 C     3401   1 H                                       1.0868223
  3333   6 C     3402   1 H                                       1.0874595
  3331   6 C     3403   1 H                                       1.0931361
  3331   6 C     3404   1 H                                       1.0939871
  3329   6 C     3405   1 H                                       1.0920092
  3330   6 C     3406   1 H                                       1.0885603
  3330   6 C     3407   1 H                                       1.0886671
  3330   6 C     3408   1 H                                       1.0867616
  3328   6 C     3409   1 H                                       1.0919717
  3328   6 C     3410   1 H                                       1.0941715
  3326   6 C     3411   1 H                                       1.0936048
  3327   6 C     3412   1 H                                       1.0882229
  3327   6 C     3413   1 H                                       1.0884400
  3327   6 C     3414   1 H                                       1.0881538
  3325   6 C     3415   1 H                                       1.0911041
  3325   6 C     3416   1 H                                       1.0930425
  3323   6 C     3417   1 H                                       1.0920909
  3324   6 C     3418   1 H                                       1.0882678
  3324   6 C     3419   1 H                                       1.0873163
  3324   6 C     3420   1 H                                       1.0878484
  3322   6 C     3421   1 H                                       1.0919680
  3322   6 C     3422   1 H                                       1.0933130
  3320   6 C     3423   1 H                                       1.0932618
  3321   6 C     3424   1 H                                       1.0869657
  3321   6 C     3425   1 H                                       1.0884898
  3321   6 C     3426   1 H                                       1.0881902
  3319   6 C     3427   1 H                                       1.0936270
  3319   6 C     3428   1 H                                       1.0935138
  3317   6 C     3429   1 H                                       1.0935733
  3318   6 C     3430   1 H                                       1.0862904
  3318   6 C     3431   1 H                                       1.0863612
  3318   6 C     3432   1 H                                       1.0882900
  3316   6 C     3433   1 H                                       1.0935791
  3316   6 C     3434   1 H                                       1.0934427
  3314   6 C     3435   1 H                                       1.0942749
  3315   6 C     3436   1 H                                       1.0880258
  3315   6 C     3437   1 H                                       1.0887318
  3315   6 C     3438   1 H                                       1.0869022
  3313   6 C     3439   1 H                                       1.0901545
  3313   6 C     3440   1 H                                       1.0925350
  3311   6 C     3441   1 H                                       1.0956506
  3312   6 C     3442   1 H                                       1.0882046
  3312   6 C     3443   1 H                                       1.0876838
  3312   6 C     3444   1 H                                       1.0886324
  3310   6 C     3445   1 H                                       1.0918859
  3310   6 C     3446   1 H                                       1.0927084
  3308   6 C     3447   1 H                                       1.0937178
  3309   6 C     3448   1 H                                       1.0885744
  3309   6 C     3449   1 H                                       1.0869809
  3309   6 C     3450   1 H                                       1.0887991
  3307   6 C     3451   1 H                                       1.0944852
  3307   6 C     3452   1 H                                       1.0936800
  3305   6 C     3453   1 H                                       1.0934644
  3306   6 C     3454   1 H                                       1.0879347
  3306   6 C     3455   1 H                                       1.0877391
  3306   6 C     3456   1 H                                       1.0861148
  3304   6 C     3457   1 H                                       1.0911202
  3304   6 C     3458   1 H                                       1.0932110
  3302   6 C     3459   1 H                                       1.0921978
  3303   6 C     3460   1 H                                       1.0887933
  3303   6 C     3461   1 H                                       1.0876480
  3303   6 C     3462   1 H                                       1.0888033
  3301   6 C     3463   1 H                                       1.0914541
  3301   6 C     3464   1 H                                       1.0936903
  3299   6 C     3465   1 H                                       1.0950986
  3300   6 C     3466   1 H                                       1.0885786
  3300   6 C     3467   1 H                                       1.0879528
  3300   6 C     3468   1 H                                       1.0857079
  3298   6 C     3469   1 H                                       1.0927597
  3298   6 C     3470   1 H                                       1.0937160
  3296   6 C     3471   1 H                                       1.0910049
  3297   6 C     3472   1 H                                       1.0883607
  3297   6 C     3473   1 H                                       1.0863509
  3297   6 C     3474   1 H                                       1.0877162
  3295   6 C     3475   1 H                                       1.0908415
  3295   6 C     3476   1 H                                       1.0946968
  3293   6 C     3477   1 H                                       1.0958837
  3294   6 C     3478   1 H                                       1.0871160
  3294   6 C     3479   1 H                                       1.0886276
  3294   6 C     3480   1 H                                       1.0860673
  3292   6 C     3481   1 H                                       1.0932274
  3292   6 C     3482   1 H                                       1.0919661
  3290   6 C     3483   1 H                                       1.0924913
  3291   6 C     3484   1 H                                       1.0866718
  3291   6 C     3485   1 H                                       1.0884520
  3291   6 C     3486   1 H                                       1.0877130
  3289   6 C     3487   1 H                                       1.0882776
  3289   6 C     3488   1 H                                       1.0934521
  3287   6 C     3489   1 H                                       1.0950919
  3288   6 C     3490   1 H                                       1.0858243
  3288   6 C     3491   1 H                                       1.0876995
  3288   6 C     3492   1 H                                       1.0876766
  3286   6 C     3493   1 H                                       1.0918488
  3286   6 C     3494   1 H                                       1.0938584
  3284   6 C     3495   1 H                                       1.0939258
  3285   6 C     3496   1 H                                       1.0873847
  3285   6 C     3497   1 H                                       1.0872090
  3285   6 C     3498   1 H                                       1.0887988
  3283   6 C     3499   1 H                                       1.0912179
  3283   6 C     3500   1 H                                       1.0939393
  3281   6 C     3501   1 H                                       1.0947418
  3282   6 C     3502   1 H                                       1.0875684
  3282   6 C     3503   1 H                                       1.0888448
  3282   6 C     3504   1 H                                       1.0880390
  3280   6 C     3505   1 H                                       1.0898610
  3280   6 C     3506   1 H                                       1.0925731
  3278   6 C     3507   1 H                                       1.0940586
  3279   6 C     3508   1 H                                       1.0877639
  3279   6 C     3509   1 H                                       1.0882468
  3279   6 C     3510   1 H                                       1.0883615
  3277   6 C     3511   1 H                                       1.0908005
  3277   6 C     3512   1 H                                       1.0937374
  3275   6 C     3513   1 H                                       1.0926378
  3276   6 C     3514   1 H                                       1.0878895
  3276   6 C     3515   1 H                                       1.0868140
  3276   6 C     3516   1 H                                       1.0886141
  3274   6 C     3517   1 H                                       1.0934863
  3274   6 C     3518   1 H                                       1.0946479
  3272   6 C     3519   1 H                                       1.0946725
  3273   6 C     3520   1 H                                       1.0862610
  3273   6 C     3521   1 H                                       1.0877122
  3273   6 C     3522   1 H                                       1.0882249
  3271   6 C     3523   1 H                                       1.0924436
  3271   6 C     3524   1 H                                       1.0935596
  3269   6 C     3525   1 H                                       1.0937636
  3270   6 C     3526   1 H                                       1.0864377
  3270   6 C     3527   1 H                                       1.0888037
  3270   6 C     3528   1 H                                       1.0880736
  3268   6 C     3529   1 H                                       1.0924987
  3268   6 C     3530   1 H                                       1.0935084
  3266   6 C     3531   1 H                                       1.0947344
  3267   6 C     3532   1 H                                       1.0865894
  3267   6 C     3533   1 H                                       1.0886460
  3267   6 C     3534   1 H                                       1.0881019
  3353   6 C     3535   1 H                                       1.0913237
  3353   6 C     3536   1 H                                       1.0931795

 * 2 distinct bonds (by element types)

   Z      Z             #   av. dist./Å        max./Å        min./Å
   1 H    6 C        2366     1.0903187     1.0973272     1.0830449
   6 C    6 C        1110     1.5323432     1.5399966     1.5227807


optimized geometry written to: xtbopt.xyz


           -------------------------------------------------
          | TOTAL ENERGY            -3716.257982733034 Eh   |
          | GRADIENT NORM               0.000812323212 Eh/α |
          | HOMO-LUMO GAP              11.205122487244 eV   |
           -------------------------------------------------

------------------------------------------------------------------------
 * finished run on 2024/06/24 at 12:13:28.757     
------------------------------------------------------------------------
 total:
 * wall-time:     3 d, 20 h, 13 min, 14.310 sec
 *  cpu-time:    20 d, 20 h,  6 min, 55.872 sec
 * ratio c/w:     5.423 speedup
 SCF:
 * wall-time:     0 d,  0 h,  8 min, 35.331 sec
 *  cpu-time:     0 d,  0 h, 45 min, 21.716 sec
 * ratio c/w:     5.281 speedup
 ANC optimizer:
 * wall-time:     3 d, 20 h,  3 min, 10.831 sec
 *  cpu-time:    20 d, 19 h, 19 min, 46.224 sec
 * ratio c/w:     5.424 speedup

