3536
 energy: -3716.257982733034 gnorm: 0.000812323212 xtb: 6.6.1 (8d0f1dd)
C           72.31562677139564       58.09740646230468       62.79530897132251
C           72.85410466001564       57.12317380900627       63.84027146321407
C           73.92325997930888       56.22833497117452       63.21237667625986
C           71.74270483483681       56.24622759417949       64.42888670658068
C           70.60784883283573       56.98904682611489       65.14255943682825
C           71.14201265952038       57.87177210780154       66.27129108022960
C           69.59567278242001       55.99994860865554       65.73804553202412
C           68.89221014746126       55.04907594839773       64.75901001419216
C           68.07887684212518       55.82611133482724       63.72908657640539
C           68.01240071181842       54.09308769191872       65.57634757610373
C           67.26027148720793       52.99153183801329       64.81274188305133
C           66.44507863436031       52.19068395824765       65.82797121113683
C           68.22676656986947       52.09545786360776       64.02882318299855
C           67.61657845982272       50.87581878686596       63.32005705822520
C           68.72787811498614       50.06665709505483       62.65290096380378
C           66.46037479423508       51.17135985213583       62.34650676710932
C           66.76293968006833       51.61631137732699       60.90569972162536
C           67.50524731081869       52.94507985872416       60.84136534484092
C           65.40800720468893       51.69708010411914       60.18051192668279
C           65.39813952334485       52.20355707157255       58.73165731975594
C           63.94823482099051       52.27763073195676       58.25619002751605
C           66.23602531243142       51.31160174485770       57.81009400329310
C           66.34345096372589       51.77233417650394       56.34691003766351
C           67.09181802159117       50.71041659435878       55.54452630185377
C           67.04080240972016       53.13402954821637       56.25255262253523
C           67.26426415373737       53.70483536848655       54.84266531715832
C           67.97057066066331       55.05237792639920       54.98507368984235
C           65.92907624333056       53.83375797334400       54.09888286125211
C           65.93316122123086       54.61181763987344       52.77428232890813
C           64.50429733504278       54.65493720686570       52.23407946553118
C           66.89297457056682       53.99381876516784       51.75184888626934
C           66.99642577964633       54.72257516304268       50.40284151972073
C           67.88768399399265       53.90280405588382       49.46975441073848
C           67.54472229669909       56.14499408543234       50.56618997445508
C           67.45754280486182       57.01109296261797       49.29469950059264
C           68.84941790634986       57.48304911243132       48.87000436934686
C           66.55491660106246       58.23773925239935       49.48667128634713
C           65.06944863752261       57.95390407169057       49.75044409899255
C           64.41316605574198       57.25966372299489       48.55990377065841
C           64.36266822511872       59.28329743038206       50.04761605497026
C           62.96263595736377       59.18253291669585       50.67195664389827
C           62.25883524675967       60.52647770397012       50.50244397636431
C           63.05864738562845       58.80798347663666       52.15354976194165
C           61.72469093024666       58.51268711863349       52.85251230646499
C           61.93888753890649       58.57910572557534       54.36479701868758
C           61.14820776059044       57.14308140894908       52.45001274450365
C           59.65099547890992       57.12649916310303       52.10865965452625
C           58.80029754165564       57.78163950389040       53.19705436052289
C           59.14826994513438       55.68439435293303       51.93864955213262
C           59.74516672735282       54.86538587935254       50.78291450097662
C           59.14694332097432       55.31747412295086       49.45439487480240
C           59.48875945444492       53.37791326156334       51.07170248223848
C           60.20500707758443       52.31518246422516       50.21626528245236
C           61.65282332205430       52.70296663645509       49.91784333441703
C           59.49255052659678       51.92645123343567       48.91310003865107
C           58.06264706326724       51.38629036416813       49.05720714257561
C           57.94813039351769       50.33388688262504       50.16085598633656
C           57.58555078890709       50.73932328438108       47.74933834286943
C           57.60441069119064       51.60517641487625       46.48368388290419
C           56.65674980034885       52.79268017024211       46.61162086991177
C           57.21906021036255       50.70796074005052       45.29905340528359
C           57.35191735585648       51.29037110737447       43.88340552374797
C           56.86847652338450       50.21970099271983       42.90374597486854
C           58.79769500254332       51.71026928182175       43.59274101582342
C           59.07513287478054       52.31236554142947       42.20618465861772
C           60.59060314839360       52.37720132802835       42.00472774722819
C           58.44152430541291       53.70624654351014       42.05799074410434
C           57.79548194185170       54.02444812235630       40.69941886920332
C           56.64775929730736       53.06378132083832       40.38735134805425
C           58.81992854798734       54.06256188950545       39.56094168530839
C           58.28105074973936       54.64632294667218       38.24709483142730
C           59.21835895940416       54.28073929546615       37.09608703623590
C           58.11022476299294       56.16945580906264       38.32916712398764
C           57.03755261835150       56.72633358208558       37.38184428501242
C           57.26776816262467       58.22153095555183       37.16447236709618
C           55.63538265289875       56.47931693683688       37.95230891411700
C           54.49051714012904       56.68378237600798       36.94201103999519
C           53.46412373575117       57.67765548960192       37.48624096573599
C           53.78196784762229       55.36757268943000       36.59514538051499
C           54.62961902850326       54.35737471919073       35.81264929671102
C           54.83664887523015       54.81725620157692       34.37023810022868
C           53.95341701558540       52.97716371153872       35.82297062610253
C           54.18495206491527       52.17640786146287       37.11110980337586
C           55.54967709628468       51.48979835660401       37.07037771047758
C           53.08669986173991       51.12326702875767       37.31544244850016
C           51.74924731531956       51.68296367698908       37.82124876199449
C           51.84007989305094       52.03029841586434       39.30439565966899
C           50.63226789666626       50.66423400559085       37.56066789611348
C           49.23225118607080       51.17651983776263       37.89183522697923
C           48.15973261537117       50.16123065065184       37.51563593752626
H           71.61992385439116       58.80420744744274       63.24030414359589
H           73.13128370939559       58.66235880239570       62.34799194892847
H           71.80224301894557       57.55532844544699       62.00323724636339
H           48.31282027216920       49.22941541394979       38.05630097526453
H           47.16929749539236       50.53995557964147       37.75881791337719
H           48.19114061351911       49.94556221307435       36.44944291150811
H           50.65357878341837       50.38305452090776       36.50388807815084
H           50.83078667816748       49.76021841018038       38.14252367255325
H           52.92911169726582       50.60804661738050       36.36422211966445
H           53.43707977889076       50.37755527808445       38.03328483791800
H           54.17455700891102       52.86384948052938       37.96187561889291
H           55.57078886452449       50.73858637617114       36.28286265062210
H           56.34297906656209       52.20755790495461       36.87589048641288
H           55.75911599839493       50.99769910273917       38.01745659508482
H           52.88295671733363       53.12087380789736       35.66280742914986
H           54.32687159844519       52.38611729499659       34.98311127294259
H           53.43798001747030       54.90882498809020       37.52504374820860
H           52.89170092323793       55.59463394057579       36.00197723743911
H           51.51455013903686       52.59707032910419       37.26477768681296
H           50.95084924542491       52.55831800615267       39.63465251855953
H           51.95077590727481       51.12661745927891       39.89973825082992
H           52.69679422571184       52.67098093932590       39.49556017671326
H           55.61190445915536       54.27193407687530       36.28580521922852
H           55.31196018684311       55.79442850407252       34.33259160420118
H           55.47086515280142       54.11475063664824       33.83308813040462
H           53.88169745963921       54.88178714876382       33.85176550592028
H           54.90140684788131       57.10689420919760       36.02043685895093
H           52.68892149165768       57.87487929414841       36.74813108324607
H           52.98911309853882       57.28196688849787       38.38166711893140
H           53.94332771997497       58.62217958333845       37.73504471140581
H           55.58531724886062       55.46388757930864       38.34678814265163
H           55.49853298258314       57.15686231946204       38.79778996006903
H           57.12298526482609       56.22008352687615       36.41421750190171
H           58.22950790511324       58.39791287666742       36.68673784933925
H           56.49256255634283       58.64959518780159       36.53337651153761
H           57.25863245397988       58.74564282854362       38.11850495415407
H           57.84704234651130       56.46247683861377       39.34737509530436
H           59.07143679411067       56.63651299934143       38.10026089276365
H           57.31003510719164       54.18951768536182       38.04127476575417
H           60.22564384793368       54.64248526884640       37.29544148936528
H           59.26391071918532       53.20128831448240       36.96346268263326
H           58.87627215722026       54.72258905588782       36.16272085721369
H           59.68271752337691       54.65708759352634       39.87323590348446
H           59.16814040725058       53.04524087684494       39.36886963381190
H           57.36889209401166       55.02988774192912       40.79933865275133
H           57.02304658734063       52.11787739192295       40.00390680783898
H           56.06187545150979       52.86841023885248       41.28162617251355
H           55.98143065072974       53.48310170521108       39.63857576153646
H           57.66659594193143       53.82457058520636       42.81771683322671
H           59.20238750239348       54.46354901371402       42.26329859358196
H           58.66855463285627       51.64442135254605       41.44493366709823
H           61.02818176325675       51.38156028128254       42.05498875212566
H           60.84226384405760       52.80904068054122       41.04014450755514
H           61.04833175061258       52.98721494263480       42.78172630240679
H           59.10977978000218       52.44616583630396       44.33672313038032
H           59.43236815428710       50.82902106788759       43.71464698382089
H           56.69289372639044       52.15885766163683       43.79069593234038
H           57.53700125613445       49.36064669142340       42.92211560061405
H           55.87188732638143       49.88041198512008       43.17920266502060
H           56.82207199581811       50.59583422041796       41.88705773121216
H           57.83435744620242       49.80503644109551       45.33657871871228
H           56.18027434056677       50.39522547033329       45.43917321939153
H           58.62035125852321       51.97802638269177       46.33057887629836
H           55.64148959680402       52.44851989448355       46.80026650486524
H           56.95953925284390       53.44429011595219       47.42682624304636
H           56.65673306261300       53.38042893323363       45.69779495549703
H           58.21213720206752       49.86102486688324       47.56996797461468
H           56.56272137438904       50.38087264170727       47.89804651830304
H           57.38974621864863       52.21256303142576       49.30376871761450
H           56.96425922997999       49.87057699056930       50.13509417793941
H           58.69200910850601       49.55135943484524       50.02224973443592
H           58.08336945409052       50.77401667019508       51.14402276318878
H           59.47447776056459       52.78411278866565       48.24125757521655
H           60.10124201828207       51.15417066810640       48.43114452162535
H           60.24863599091824       51.41205792285442       50.83515332483184
H           61.70588792425583       53.52972008624911       49.21349008647528
H           62.16525870364600       52.99513202817000       50.83147779322450
H           62.18832274015175       51.85943511952878       49.48649146347127
H           59.80438069375015       53.20039207069652       52.10331877213213
H           58.41280119844147       53.20002641632168       51.03554646540370
H           60.82449004292218       55.03262947647600       50.75897709703791
H           59.67169237555688       54.87555391877751       48.61169107894075
H           58.09758339428746       55.03493435034522       49.39244419436208
H           59.21558218080923       56.39782454766703       49.35456662624711
H           59.35086304964613       55.16604742529564       52.87941188379834
H           58.06307822881247       55.70678123757556       51.81088709152946
H           59.50070806533326       57.68482440791364       51.17690657874616
H           58.93054314763503       57.26086488752179       54.14291572918989
H           59.06352493547215       58.82661647279311       53.34028940032055
H           57.74710122817321       57.73253256594143       52.92591393459297
H           61.69700149442312       56.77297056130544       51.58301435302988
H           61.32301713989119       56.43436992014963       53.26217539638056
H           61.01682133140134       59.29801452811873       52.57672137405964
H           62.31074272533055       59.55807086237002       54.66225700754619
H           61.01254994204507       58.39236060000256       54.89920075709676
H           62.67044826200782       57.83357388538126       54.67241182359932
H           63.70669820495532       57.93732809987786       52.26916728812433
H           63.53456494289266       59.64643388357972       52.67039378457847
H           62.38270857721192       58.42129112483023       50.14220171126208
H           61.23568556111376       60.48573802334753       50.86549580929599
H           62.78995516232828       61.30021256680703       51.05398920429655
H           62.22918233794390       60.80930918505295       49.45388473259227
H           64.98763515054134       59.87565898043092       50.72126617632951
H           64.29075088922049       59.83803704966497       49.10824181142722
H           64.98801681693578       57.30414719180634       50.62599073174426
H           64.51108200055120       57.87356015918676       47.66686873155342
H           64.87075041645446       56.29358590701629       48.36293009627848
H           63.35496778397441       57.09284228618337       48.74573413617804
H           66.95298023425934       58.82369390732650       50.32054360147642
H           66.62643381853715       58.86397124089672       48.59197552776171
H           67.04822364507359       56.41054574666411       48.47735360540337
H           68.80146421609331       58.06409990286909       47.95054603524800
H           69.28965571667493       58.11180914862942       49.64267669284786
H           69.50925415907599       56.63496136593936       48.69730319863571
H           66.99841454673590       56.64744137830473       51.36321690058994
H           68.58483109885469       56.07120118519154       50.89077100161637
H           66.00111347797701       54.77911336886401       49.95218718623122
H           67.98271525158286       54.37657965341932       48.49537407933616
H           68.88484444038255       53.79399962402120       49.89250290975635
H           67.46972605722404       52.90998057689486       49.32171393342824
H           67.89540988817571       53.94997169833609       52.18310846352912
H           66.57468037589339       52.96560539468121       51.56052467532646
H           66.24335637481636       55.63612965957850       52.98753549661987
H           63.82879851675010       55.07116229519200       52.97717196267013
H           64.43628460799114       55.26968348703498       51.34136361544059
H           64.16688361635259       53.65180883622687       51.98173668448381
H           65.54788835644568       52.83088543498642       53.89966230282466
H           65.22268612611865       54.33187967937617       54.76950308167122
H           67.92552824973801       53.03184729413531       54.28790506797168
H           68.25560947001968       55.45477756079134       54.01721729851010
H           67.31982219069263       55.77223672289339       55.47650352132366
H           68.87266511170266       54.94370938296522       55.58534070470620
H           66.45146178537098       53.86768716055229       56.80745376866132
H           68.01339945996955       53.05462720775780       56.74825159465561
H           65.33603409622739       51.85762858798617       55.93133539537302
H           66.62559051693553       49.73681783160698       55.67413042165877
H           67.08752091926752       50.94535136532311       54.48402268492131
H           68.12648621678555       50.63734956241372       55.87404994324066
H           67.24600012196568       51.23541468521817       58.21476441228107
H           65.80334948059668       50.30729322844740       57.82445749083885
H           65.80428756131259       53.21753319438832       58.72427525877347
H           63.34461203684700       52.83349123284692       58.97034268326839
H           63.87676900720366       52.77749443673198       57.29423652294946
H           63.52504319331386       51.27911978590203       58.16224013743842
H           64.94898215233245       50.70402622860846       60.19717707725743
H           64.76134969697318       52.35979295860128       60.76331130611447
H           67.37483502659892       50.85004622039228       60.42161366149116
H           68.49062374693486       52.86373505776605       61.28951771873408
H           67.64244360984880       53.26283336004592       59.81141906111719
H           66.94803285969029       53.71732748012509       61.36591065702013
H           65.87974589339784       50.24774942479781       62.26411991533562
H           65.80418227066980       51.91374541011189       62.80367807159809
H           67.18861459082912       50.23716636957860       64.10281740486086
H           68.31258973275443       49.19622363263210       62.15002838523186
H           69.26354964125599       50.66764680912644       61.92305050655144
H           69.44424056323233       49.72036647103383       63.39546425062578
H           68.75303873465479       52.70793202007324       63.29877506910260
H           68.97641774593698       51.71388421662883       64.72773680023043
H           66.56373789689044       53.46713671615260       64.11626679220531
H           65.83210074942311       52.85779447855158       66.43154448898849
H           65.78576382067354       51.48385966851575       65.33529603258131
H           67.10519909861223       51.64314036538967       66.49786968609595
H           68.64162935886068       53.61212352741893       66.33109481248583
H           67.27286147154511       54.69219285396120       66.11547075732862
H           69.65262607419598       54.46007380570624       64.23900039582882
H           68.72589702982053       56.45241459923845       63.12156113560593
H           67.55209789865721       55.14937006504694       63.06325811282095
H           67.34766080743995       56.46296038985016       64.22234097397059
H           70.11498944774105       55.40191806351503       66.49197600040239
H           68.82565857601658       56.57862864583302       66.25779717239264
H           70.09017216651121       57.63076979942095       64.42430869838481
H           71.74668253732477       58.68789536458929       65.88557710400434
H           70.31978035515762       58.30793523805760       66.83574663117705
H           71.75195268653167       57.28578171059752       66.95669751035577
H           71.31998205268900       55.65937330585082       63.61115958948821
H           72.19348753995799       55.54629414738707       65.13801074797975
H           73.32630073122397       57.69703519235284       64.64421376499061
H           73.49902629633139       55.64211812497065       62.39969416729392
H           74.73900300983017       56.82718493089330       62.81272845053184
H           74.33346417840059       55.54271207416116       63.95069018078384
H           49.15819437795768       51.38919616096234       38.95877122446085
H           49.05271003434109       52.10935376426776       37.35148888168187
C           71.62805434494491       50.67982592017221       55.35396992694551
C           71.25497786038413       51.98853804225533       56.04474582154121
C           71.67158866814361       53.17272510939271       55.17327195200474
C           71.90750751475544       52.11762567777375       57.42635042783394
C           71.57318732614424       51.01863883052594       58.44624172846630
C           70.06626108262911       50.88719515620203       58.64416154666001
C           72.26952361260540       51.35764749872713       59.77258546253711
C           72.31550677618988       50.22364042794974       60.80603453807861
C           72.63908632378248       50.80902155734741       62.17998635408367
C           73.34827203314877       49.15619366185307       60.42375737819966
C           73.10994844620262       47.79193313864099       61.08938927770901
C           74.40984279736037       46.98862978868672       61.09299943389695
C           71.99490469316626       47.02857767052573       60.36357844165681
C           71.40604214489068       45.83396187473858       61.13149432625154
C           70.64415425874110       44.93779902893633       60.15607321654497
C           70.49981603368592       46.32159898759078       62.26914343244715
C           69.86788172273059       45.24283051226995       63.16347595593403
C           68.91593111170822       45.92474875769036       64.14609659509266
C           70.94300537365666       44.43538651214991       63.89868626788315
C           70.45770372905267       43.24288424270354       64.73930527452286
C           71.63705708063246       42.72917552112298       65.56631195309220
C           69.89129823738767       42.14307074067991       63.83465294122580
C           69.30571303465180       40.91469094806362       64.54323671015239
C           68.96825697112209       39.85456384252743       63.49251828737253
C           68.05584868481613       41.25365640311145       65.37829655304208
C           68.26034851295449       41.17958218131719       66.89670513835868
C           68.49886885934123       39.73391224340228       67.33607325703670
C           67.03478023561229       41.71671165638598       67.65106779511825
C           66.80120491782355       43.22913180920450       67.57562072210301
C           67.86938939624984       43.99455058542682       68.35708843068950
C           65.41702496145776       43.59944532508828       68.13120444151625
C           64.20846194616783       43.03238071145946       67.37327411777186
C           64.33785031459578       43.27113687250800       65.87017901170526
C           62.90242029889153       43.67801539460311       67.85851847268120
C           62.53186937400164       43.45859723376112       69.32983328110556
C           62.32859753787358       41.97386613317375       69.63171855221285
C           61.24246376743312       44.22102490639637       69.67768007635691
C           61.37769676577877       45.74615812627384       69.73913748041026
C           62.19130918297346       46.16886512791955       70.96315474371694
C           60.01139338823155       46.44389937215417       69.80941630607727
C           59.03680559761815       46.22733448386249       68.64090719493262
C           59.73038009245057       46.26250229257007       67.28048049727067
C           57.94963833072715       47.31315906684059       68.64310219540900
C           57.08067422538622       47.40903373671682       69.90171665754552
C           56.10666350960488       46.23417848821877       69.98030148882982
C           56.30603394875773       48.73542476596428       69.90353732850915
C           57.13986316915368       49.96114686829835       70.31280966933079
C           57.29751577932662       50.01189937632927       71.83010849457187
C           56.46292254528964       51.22240832975383       69.76270720830517
C           57.11658521306951       52.57815046813711       70.07484601194780
C           56.33560781414524       53.65284244410197       69.31669424563106
C           58.60301208919232       52.58455785835307       69.69557570488604
C           59.30809800048274       53.94998548693228       69.73714828520609
C           60.77622092625109       53.75768962911371       69.35900851678288
C           59.17141264275649       54.61393541477008       71.11284613926308
C           59.83809592946337       55.99038199319489       71.28159219624253
C           59.57437834776065       56.47823078095174       72.70664105178432
C           59.32169878935821       56.99203958721905       70.24301783873503
C           60.01624002236953       58.36108780077717       70.21468477797592
C           59.33511598597662       59.23571584342563       69.16047351397202
C           61.52636553334222       58.24767913264414       69.92650944292960
C           62.40921870493312       58.64793666394942       71.11519442991130
C           62.43528991582590       60.17068954602141       71.25418115076842
C           63.84481593328746       58.12572938680047       70.96654668979575
C           64.03608425787129       56.62321977308252       71.20952153748952
C           63.69771707983262       56.24253888779363       72.65205804073595
C           65.48835569718128       56.20331279218162       70.93535244754645
C           65.99152787619695       56.37153308919513       69.49801670524042
C           65.16183649341113       55.53845937755941       68.52279827314132
C           67.46390454056234       55.95044205700025       69.37536574631807
C           68.46103786598853       56.69109895160356       70.27300590033171
C           68.38089548116469       58.20457848258863       70.06827055351239
C           69.90093225551055       56.23764410571293       69.99125408974820
C           70.19471562291133       54.73966549251585       70.14374238562566
C           69.78423210472583       54.21305003888391       71.51729915734340
C           71.69563390346822       54.49471751070730       69.91673104264720
C           72.02535913785657       53.09373000317394       69.37994530702903
C           73.47720420592171       52.74232402541614       69.70137688881699
C           71.77191701929650       53.05166699359388       67.86891721469212
C           71.69856134747440       51.65434860119643       67.23928858969902
C           71.89309412486458       51.78837155151107       65.72916295578028
C           70.36067430867310       50.97822410089466       67.56403719992272
C           70.31178888529170       49.47091642925542       67.27265022265401
C           68.85861793945766       49.01126497427438       67.17017821037062
C           71.06000937023353       48.69028790116465       68.35977167262651
C           71.34599845899396       47.21742232368477       68.04141419956063
C           72.04273653570681       46.56736745728563       69.23757411108947
C           72.15150915006899       47.00563917777000       66.75112129740170
C           73.46475275528022       47.77771328304792       66.64699262268709
C           74.21051273100180       47.41683221042548       65.36672675206462
H           72.70980711416829       50.58228474039376       55.28156743250017
H           71.24193004453934       49.82317209804366       55.90103557145643
H           71.21611768521208       50.65459713775808       54.34674352774851
H           74.45557638617886       46.35669096347308       65.34965264374516
H           73.60049319176773       47.63603140737361       64.49253526369166
H           75.13561490666987       47.98343881438112       65.28735891557976
H           72.37137911779487       45.93724966761923       66.66800602066421
H           71.52701879827248       47.26989895481486       65.89443075927720
H           72.00899247950944       49.18485395890296       68.57314001147554
H           70.46839020491149       48.72920781278138       69.27939975102289
H           70.79365518335379       49.28974526307206       66.30886378212878
H           68.79801347124297       47.94323193964491       66.97748199803270
H           68.32724308739336       49.22245495512286       68.09593073875496
H           68.35306712794241       49.52697005074450       66.35699927362677
H           70.12397531925879       51.13109156143167       68.61957559284204
H           69.58167868509663       51.47698567417063       66.98287515927723
H           70.83373937383845       53.56674137826771       67.65078030813775
H           72.57212494244563       53.61521456158703       67.38099350508213
H           70.39004344816971       46.69852966406564       67.90342494689067
H           72.25703496800543       45.51989510365915       69.03564615880009
H           72.97889240857290       47.07177728874107       69.46559136137324