3795
 energy: -5103.692414654614 gnorm: 0.000897424852 xtb: 6.6.1 (8d0f1dd)
C          106.87943853667683       96.21099482452429      116.18636366445249
C          107.55746081583771       96.86267144585227      115.00430897208240
C          105.34865165804899       96.22927458289942      116.14059610665059
C          104.74867616762312       97.60912188670983      116.41619339923919
H          105.00750971324332       95.85258836864625      115.17619024072870
H          104.98858219107696       95.54478275426776      116.91004433273564
C          104.87704464147339       98.60742984472581      115.25714455050722
H          103.68681720068527       97.48924151429341      116.64332857847468
H          105.23055999200746       98.03520866457237      117.29807922955825
C          103.96140595697361       98.21001029982911      114.11903589215791
H          104.56665177358281       99.59344833742345      115.60608022371565
H          105.90930056842596       98.68028661246251      114.92033919160652
N          104.47894183141246       97.38576843183475      113.20573130957997
O          108.55314586021858       97.63869201298050      115.36341760299368
O          107.24650126460556       96.66713519378654      113.84308534482957
H          109.03208321411427       98.04679395635560      114.58203599790302
H          107.24095471825260       96.69308675286707      117.09432242182994
H          107.21921900091455       95.17201971513069      116.19085101199866
C          103.67745037642931       96.83895962701536      112.12578521641250
H          105.43914633052339       97.07323310105372      113.28619822791642
C          104.40398149100146       95.71386539687252      111.40241731287830
H          102.73736988166195       96.47614335929472      112.55511706149004
H          103.42742365709265       97.63847760812304      111.41893992899185
C          105.55212498742951       96.22235771357137      110.53137676081683
H          104.78654790795271       94.99996865680589      112.13450911122197
H          103.68107511756584       95.19227704179953      110.77364004312221
C          106.20806405307850       95.07654865858929      109.76225830772749
H          105.16671948768145       96.95741857837906      109.82225964713712
H          106.29112869850186       96.71639729581013      111.16264807865832
C          107.21766135649965       95.54430727532815      108.71202389519588
H          106.69390849882095       94.39637791739895      110.46456002479061
H          105.43123594378102       94.50640311795397      109.24839338841960
C          108.35255454133488       96.40107001128794      109.27643187185188
H          107.64792600716854       94.66783353674218      108.22369375450285
H          106.70358514186501       96.13494053530779      107.95265334947270
N          109.07056926876336       95.73203964101153      110.33849284527031
H          109.08242645090138       96.61284649933035      108.49240651569362
H          107.96375568008477       97.35086340106884      109.65055420950337
C          110.35966967403360       95.38008639471720      110.25642283932108
H          108.55451993156582       95.54048013033140      111.18165876598169
O          102.79654604643750       98.60059341873072      114.05675250772607
C          110.94561499427464       94.68193263198842      111.47370510625963
C          110.26074538157752       94.95653747342654      112.81464385397317
H          110.93549557377123       93.60947062883854      111.26245305140691
H          111.99693727900777       94.97516733645037      111.51728126957707
C          111.22336659598911       94.75173490464741      113.98678178545833
H          109.89716066115720       95.98503299449493      112.85615544904361
H          109.40497568469652       94.28961022105192      112.93627910556656
C          112.17226280879876       95.94301457653209      114.15082544853523
H          110.65700981183632       94.63913808659899      114.91336132097145
H          111.80022659098837       93.83684345545144      113.83512858000257
C          113.12214805518532       95.69252097369341      115.30082515353168
H          112.74469696921678       96.12074099204590      113.24238116116676
H          111.57854535665332       96.83414659143585      114.36991066545248
N          114.41068916688717       95.58402087254198      114.96740888623340
C          115.45223476134518       95.32971565335386      115.94133853626622
H          114.69172315780301       95.78157326809387      114.01491938712603
O          111.04711148035349       95.59461676009080      109.26239913595717
C          116.69250879094264       96.18225364227753      115.69018496022250
H          115.02717121772552       95.54363943799872      116.92655511927377
H          115.72278292766684       94.26789228980944      115.91414956059668
C          117.67567899199373       96.06654945330563      116.85329694427502
H          117.17186019784339       95.85339566193926      114.76636278307053
H          116.39668548512094       97.22419720001591      115.55884746602798
C          118.99679501626606       96.78196905721681      116.57970737688019
H          117.21968395854347       96.49289179089769      117.74910306587917
H          117.87458010601215       95.01161938150001      117.05084604443552
C          119.90036905959167       96.75409714424336      117.81083967502197
H          119.50758777348604       96.30733632036468      115.73961437225441
H          118.79979635807435       97.81907807311640      116.30264413546648
C          121.25800511114440       97.40555322604573      117.56740257430273
N          121.11408628401374       98.79754192017583      117.20224752976341
H          121.86703795189675       97.32553873432984      118.47657005167521
H          121.79548775291893       96.91176070884931      116.75270949643060
C          121.84308895293508       99.38617961569007      116.24588504511522
H          120.35424392278145       99.30679572700213      117.64232274567644
O          112.72678294678265       95.57872879241697      116.46364257039184
C          121.47658272878787      100.83746322941698      116.00284552835332
C          121.92860593920940      101.73077607729753      117.15999001370187
H          121.93556884665976      101.17429228034135      115.07240416619473
H          120.39308498833248      100.91133039102590      115.90470053731627
C          123.44577656009655      101.76095484298668      117.32696288539169
H          121.58498049502204      102.74418882201469      116.96151339467239
H          121.45147447276634      101.39364680696848      118.08157045122692
C          123.88324166510755      102.83824042657564      118.32684726404347
H          123.80640868848769      100.77466060531098      117.62546196680768
H          123.90168409668247      101.98168521077623      116.36003749180124
C          123.12089434246970      102.78535131036755      119.63919490235848
H          124.94914446804454      102.73713273026443      118.54159549352499
H          123.72479309696585      103.82876234955225      117.89659488970226
N          123.06180601472590      101.57664384138107      120.20364027046531
C          122.29258587816834      101.26594311872600      121.39033989622662
H          123.53779512133441      100.80642210463611      119.76143891377511
H          119.40487559830488       97.28298724125615      118.62599104728898
H          120.06427841355062       95.72176708590820      118.12183130197782
O          122.74053618028493       98.80837614695416      115.63649018347344
O          122.60857956641348      103.78080713876679      120.14652403951393
C          121.72677442757958       99.85071878756561      121.30509456383228
H          122.92478646856409      101.37937138820477      122.27644981184822
H          121.48435015898686      101.99992407976995      121.45783274303791
C          120.99728413955862       99.45177755532103      122.58889667615604
H          121.04049744210927       99.79890716405870      120.45637787039152
H          122.54345521460355       99.14870873823378      121.12296677385143
C          121.96952563573180       99.22417427718290      123.74611579884099
H          120.28891657946610      100.24062782447474      122.84186995856557
H          120.43262659506820       98.53506993205460      122.41104049141497
C          121.28947069027735       99.00694519780448      125.09911820839531
H          122.58053693749997       98.34608390428164      123.52821438177867
H          122.64565240391885      100.07268849251845      123.83175381176271
C          120.29755932966776      100.10213480074377      125.49113350777147
H          120.74742406415531       98.06013154279934      125.09879394583290
H          122.06841199421376       98.94390445930919      125.86092366851398
N          120.76894376415112      101.43790254480673      125.17670918494817
H          119.34548509661708       99.96955237837616      124.96831641526821
H          120.09274278668694      100.03003343413363      126.56710069450767
C          119.91939685100236      102.42581755515000      124.87958423826004
H          121.76401184761431      101.58365821919583      125.06303593469468
C          120.57816690443890      103.74017684611579      124.50907987343447
C          119.58716519745583      104.75722952433772      123.94601844991611
H          121.03813389979668      104.14405307182864      125.41635705587356
H          121.37721626175475      103.53441850644242      123.79814259248707
C          120.22049008506806      106.13383733588806      123.74088888508112
H          119.17848753117664      104.39274320203693      123.00129146944954
H          118.75524896655618      104.84739711609926      124.64887381234598
C          121.07422529481083      106.23219346227032      122.47491733227166
H          119.43418159907826      106.88978274923008      123.67154385282821
H          120.82645182855069      106.37090171779994      124.61772831608926
C          120.25945468447281      106.60923454414906      121.25188182727737
H          121.81089366222007      107.03342358981769      122.59080991143257
H          121.61004175508982      105.30681240289960      122.27933924377936
N          120.68416380327406      106.05553121366508      120.11244660880705
C          120.13323913532329      106.35514249007649      118.80720358273560
H          121.45388704813195      105.39661706277846      120.13262510419956
O          118.70053599945290      102.27637393828371      124.93060089246205
C          120.13374225269561      105.11007362511062      117.92655753654000
H          119.12309313926967      106.74446196794587      118.94817520208716
H          120.73033005121066      107.14527162350858      118.33753763139318
C          119.39400172370438      105.31288230809272      116.60483695660490
H          121.17090731305044      104.83422418953501      117.72624032845603
H          119.67569900801534      104.28523612602734      118.47482360354232
C          119.52847874491313      104.07423594380401      115.71882995801313
H          118.34201580455810      105.51592358704744      116.81020311753723
H          119.80197880339152      106.18103819004213      116.08474187691769
C          118.74951452416610      104.14418177223504      114.40721579835346
H          120.58070270624627      103.92936756360967      115.46982937158654
H          119.20069153233474      103.19640582699446      116.27910568614219
C          117.25922249939839      103.90293944730074      114.60144361379204
H          118.90453733016268      105.11513744949586      113.93325951761879
H          119.14397462759307      103.38278651630935      113.73267540488001
N          116.56717021403502      103.89355888379238      113.32896318010596
H          117.08999537713231      102.93639741066976      115.08772465878828
H          116.82304526363940      104.67860034023096      115.24302262522394
O          119.30820853294456      107.38758707741941      121.30967847544291
C          115.37846314574607      103.31440295156513      113.16821897272131
H          117.04565105807238      104.31963546529393      112.54224733467632
C          114.78203981488966      103.43241552925183      111.78029794066946
C          115.62447006735525      102.74013563057848      110.70951405084486
H          113.78231054827489      102.99696981935244      111.80873921123607
H          114.69839978880297      104.49550236525793      111.54508136049709
C          115.03739349052802      102.95263957529350      109.31719745532074
H          116.63249388877041      103.15299683306156      110.72693981205398
H          115.69376147797207      101.67196087736806      110.92574119130376
C          115.92960851479494      102.35482709676064      108.21916996835211
H          114.04251774896713      102.50942300946751      109.25493297495488
H          114.93367606239703      104.02527264308425      109.14556086980977
C          115.63522162787970      100.87852237236859      108.02536374928643
H          115.74706013318281      102.87525387821422      107.27996701440114
H          116.97946148538054      102.47296277249851      108.49299512385198
N          114.72905425036180      100.64165749122454      107.07293389863013
O          114.78989697051436      102.73918851435772      114.08481551497680
C          114.27885120475401       99.31887816184205      106.69071160830367
H          114.26961788357380      101.43391825374540      106.62207025762183
C          113.60520725666093       99.35160009523517      105.32406875226077
H          115.14368691496978       98.64827098298269      106.68810728091829
H          113.56873906899362       98.93734197516351      107.43535374394581
C          114.57211654488553       99.56899366842863      104.16263530988148
H          113.07538657592409       98.40905234685320      105.17662371215685
H          112.87375368662791      100.16328945596612      105.32131404042497
C          113.79973837683940       99.76905742310278      102.85958481349640
H          115.18509318996078      100.44881150599736      104.36274360201713
H          115.24034598981980       98.71087014445847      104.07168769338286
C          114.71107041963698      100.07089789855999      101.67272679452940
H          113.21845292911091       98.87015068198239      102.64313380623013
H          113.09571836514426      100.59380536182420      102.99279581486655
C          113.91176082279179      100.42220148724870      100.41252562532421
H          115.36974853248705      100.90745354467485      101.91640891738449
H          115.33857721100286       99.20475074013896      101.45875265205242
N          113.15214511234755      101.64362926873625      100.57346295834338
H          114.59658061981776      100.57419774645882       99.57450314115916
H          113.22155411367373       99.61129105046233      100.17020452726962
C          113.58247902778949      102.83539902511738      100.14495324254401
H          112.31038990562413      101.60591002621041      101.13731957742006
O          116.17361686084999       99.99591876891283      108.69245968852464
C          112.71063933119689      103.99614525047339      100.58147499662600
C          112.92651020060396      105.26064272221126       99.75596191239170
H          111.66541186019673      103.68664409975119      100.56518059969999
H          112.96818282353347      104.20553414377844      101.62202055915917
C          112.14399244866615      105.24997708022795       98.44676847733241
H          112.62447607690532      106.12334650657343      100.34960757541056
H          113.99198501312055      105.36662134405249       99.54348873330015
C          112.20622791413882      106.60958122015722       97.73748327914282
H          112.53546441894051      104.46689769222398       97.79334283664848
H          111.09683120103819      105.02029764504474       98.65598562519570
C          113.61042161069584      106.91437315752225       97.25822738684383
H          111.51531892438068      106.61790297024423       96.89413670053065
H          111.90988078747489      107.38795735862783       98.44208491450286
N          113.86322097767562      106.52858154633564       96.00122696478736
C          115.13807685017116      106.69711139667443       95.33780948166670
H          113.13594356272330      106.07655027289906       95.46854473360976
O          114.60721494876020      102.97661234284021       99.48089136584530
C          115.55716554630345      105.43919342713626       94.58019186009575
H          115.07286754758519      107.53676766933435       94.63518346144511
H          115.86618750658242      106.94866642354432       96.10890696445696
C          115.71856920934951      104.20463609784510       95.46792756746184
H          114.81343147221082      105.22642821807291       93.80901357794417
H          116.50310948630990      105.64906719231624       94.07915125028360
C          116.81071985237389      104.35349815603338       96.52541578223084
H          114.77430928909780      103.98000935912945       95.96798939842360
H          115.96065578743152      103.35471159992072       94.82643678248732
C          117.11614595589651      103.01317532498889       97.19139048027904
H          117.71956622333950      104.74663006726863       96.06530303249693
H          116.48473839665765      105.05838939032510       97.29081251316714
C          118.04834117371099      103.15924840815065       98.38770917565341
H          116.18358798117040      102.56592960337979       97.54080754542126
H          117.56970065361810      102.33506234756234       96.46751170962632
N          117.36977079773024      103.86357186810758       99.45481767618375
H          118.36221991425703      102.16845642940042       98.73989422050312
H          118.94758087153332      103.72528792192351       98.12845043240443
C          118.00158618394893      104.51517227122203      100.42850605609175
H          116.36553535183785      103.72007866879945       99.50064635058742
O          114.44540346598176      107.46985667476447       97.96622694452105
C          117.08582813744343      105.13478379321974      101.46775510012402
C          116.48692230855396      104.04739423990152      102.36096691631900
H          117.64868406187466      105.84489562523197      102.07469802177482
H          116.27942355085173      105.66567935526498      100.95990233224492
C          115.46066425753064      104.60369547550088      103.34922008844784
H          115.99726274592740      103.30463758003000      101.72710764728761
H          117.28844726924230      103.54421619335889      102.90743383165727
C          114.78590612216730      103.44055038210050      104.07100481003198
H          115.95522066832503      105.26613635142716      104.06285730450765
H          114.73087195338834      105.19514920781303      102.79447558107174
C          113.63783393872011      103.74141119941403      105.01190933878479
H          114.37036243211446      102.75554880760352      103.32361282456225
H          115.53391423579414      102.87852473107431      104.63703759221211
N          112.89147300585226      104.81520645429356      104.76752818776593
O          119.22854312419977      104.61150011434940      100.48003788558368
C          111.69158948261871      105.07229829524564      105.54041436963207
H          113.07732142527780      105.43546594600278      103.99052055526010
C          111.18269068809451      106.49177728994937      105.35939135033294
H          110.91828523138190      104.35775403211778      105.23118232617148
H          111.92349944893978      104.88221844992668      106.58983039555113
C          112.10422814422380      107.54938491362977      105.96483916072044
H          111.06322676325908      106.68309459327753      104.29367448238079
H          110.20316044777468      106.56046918253243      105.83314017098475
C          111.38350020997281      108.88587844958074      106.13130293692755
H          112.45217818435481      107.21638041547800      106.94345585420028
H          112.98008784555894      107.68147140441135      105.32698169750718
C          112.30751519591814      109.96487308131229      106.68111580215307
H          110.98512432088162      109.22036679763549      105.17291820742487
H          110.53908601931413      108.76257853795032      106.81261788716427
C          111.57255923986689      111.28733743774765      106.89925801372389
H          112.70527029877476      109.64311349583889      107.64473691082780
H          113.14961199991447      110.11486561141406      106.00342439173698
N          112.29397262987497      112.10324113611865      107.85008114261507
H          111.47179517212444      111.84911244644023      105.96841908906744
H          110.57127445483798      111.08447682148761      107.29587561395893
C          112.70724595864549      113.35706761651899      107.66725983508306
H          112.59670135531520      111.61376596718215      108.68458316545694
O          113.38078047102060      102.97014705928946      105.94296868640787
C          113.47868191992688      113.91891162357248      108.84744348281656
C          114.65614116774158      114.77653505997517      108.39518490377276
H          112.79762679923046      114.53283451770483      109.44367573600931
H          113.82390785123648      113.09822915494631      109.47586937943802
C          115.38833345445552      115.38579164134489      109.58464387581111
H          115.35231348070673      114.16882376351080      107.81278729198694
H          114.28015036797056      115.56959913826685      107.74583432192807
C          116.54730236710137      116.27241493382141      109.12445597313818
H          114.68319881712748      115.96679290625561      110.18381497632555
H          115.77666783937487      114.59459085041794      110.22850629897286
C          117.21073309440715      116.93465077487488      110.31241644881210
H          117.27731620577595      115.66120577521166      108.59461318561462
H          116.17684550435723      117.02930678697663      108.43583009774814
N          117.15001633742577      118.27553067653729      110.30501463094394
C          117.59703398248942      119.11761140997088      111.39057299928005
H          116.80961461899193      118.75805443697836      109.48820038782367
O          112.47999660057377      114.00780014832331      106.64705242674776
C          116.66609507466561      120.31369610019181      111.54885111237431
H          117.59126614965923      118.50404056766250      112.29574665939388
H          118.61991288797982      119.46359252191294      111.19075367733507
C          116.96466660947193      121.13100883716473      112.80182379203212
H          116.76239834252277      120.95366946846849      110.66898144629289
H          115.63885481116615      119.95166399466052      111.60700234170152
C          115.93183366847491      122.24119341410582      112.98058059929464
H          116.94181088977635      120.48375980519380      113.68134387223101
H          117.96446229892344      121.56568238387395      112.72695066261437
C          116.25912093693562      123.12353248165572      114.18006844348467
H          115.89705557529926      122.85039624067009      112.07518456193587
H          114.94805061643218      121.78931352739410      113.11320229594831
C          115.17193475448055      124.16115393521295      114.44201774893503
H          116.38597596518190      122.49724529500189      115.06437111248243
H          117.20623304157714      123.64021610777793      114.00294233750820
N          115.66066351222499      125.20990569478754      115.31114592942447
H          114.85597997191032      124.63321725971188      113.50663868867744
H          114.29812304580103      123.67451685985361      114.89022066677970
C          115.35864709591010      126.49739572852718      115.13662442478768
H          116.34386763320535      124.93656905951430      116.00949343379150
O          117.72977183330546      116.30523200937921      111.22580863385113
C          116.07509702961156      127.45825462803838      116.06698373239338
C          115.74448947348814      127.23086408360261      117.54347622196630
H          117.14872616892038      127.32721199980280      115.91716444143420
H          115.80667971235449      128.47508569401725      115.77556556997068
C          114.28022948015460      127.52018361373729      117.86626468935836
H          115.98122713055979      126.20098739756079      117.81562341208047
H          116.38092230434610      127.88458766911583      118.14393012282341
C          113.96315788715600      127.27393266976239      119.34651141047672
H          114.04462586154143      128.55736222503089      117.61940004831935
H          113.64151050736439      126.87978944686053      117.25614323370210
C          114.84104702525904      128.14673185302905      120.22033931348180
H          112.91443896988427      127.50502703572482      119.53243931481043
H          114.15498344904231      126.22918401794780      119.59235624473281
N          114.47749452408593      129.42834672617363      120.26451298100670
O          114.57252499386892      126.88453599714688      114.27242959740254
C          115.29434845365425      130.46354506901272      120.86751458197986
H          113.61187048100052      129.70350061142426      119.81727524843426
C          114.53999698547439      131.77640957616853      121.03353772268903
H          115.63919586696856      130.11634954669475      121.84651310828770
H          116.18072642993219      130.62464202835636      120.23917624577409
C          114.07078623096911      132.36305998699686      119.70290625688946
H          113.69027638832299      131.62177323646705      121.70027819028869
H          115.21221453384587      132.48446583902546      121.52226037934390
C          113.45951226281888      133.75153256005876      119.87615423184879
H          114.92088695835228      132.42953427943900      119.02005514668878
H          113.32650180271037      131.70585384841291      119.25023886421472
C          112.98738886873771      134.32775187570405      118.54224347019471
H          112.61837741616476      133.68176959678908      120.57071607801949
H          114.19924503121240      134.42410426461626      120.31788049062408
C          112.45446557880942      135.76448187034262      118.65860830642815
H          113.82148367392762      134.32970865805476      117.83793806865881
H          112.20459655750734      133.68727074662129      118.12762140487627
N          111.25537094020677      135.93278804658334      119.46226711899988
H          113.22940863640204      136.40534035432253      119.08855731682681
H          112.22541569738519      136.14035286457647      117.65701197835348
H          111.43891706474740      135.65552928747397      120.41950548545398
H          110.51583167563192      135.33782543685601      119.10397876947975
O          115.82607687255441      127.70388281156112      120.81300021441686
C          122.23838643196953      107.46887352665081      114.75665742130460
C          123.27192679643700      108.55291541096490      114.56991689773589
C          122.64248275635853      106.12652660441609      114.14388822208301
C          122.86373127199555      106.20254493371706      112.62870904895884
H          123.54563947680518      105.76332650173379      114.63445993613495
H          121.84394085122895      105.41299847685272      114.34874945514188
C          122.35403680444728      104.94274834074137      111.92042402044635
H          122.32642585544511      107.06371204838678      112.22465078770443
H          123.92457664945330      106.33944495022224      112.40884323817200
C          122.95599898482544      103.68840940806376      112.53335894176575
H          121.26956879106909      104.87980321295420      112.02555325055704
H          122.60405411494736      104.98153248112870      110.85980022013672
N          124.23168686087193      103.46744863675065      112.20981735814478
O          124.45887943516171      108.24355767934760      115.01806563921177
O          123.00108648660103      109.63159592835483      114.06947689544869
H          125.11767393974723      109.02210160789637      114.96908859133721
H          121.29738740231168      107.81635444735009      114.32804413829550
H          122.11294130895264      107.33869498131649      115.83368725769755
C          125.00560478422581      102.38230239235436      112.77233968631046
H          124.73105320941760      104.12124494971913      111.61304797785424
C          126.47914855845774      102.75809673077897      112.90761494462491
H          124.56407879968630      102.12345864848757      113.73883226965310
H          124.91802549057034      101.49507848135269      112.13169897103830
C          126.73524597909118      104.06103019910842      113.66652422943334
H          126.99439774595248      101.93276817816786      113.40088845415120
H          126.89539053087033      102.87062790401035      111.90483073156030
C          126.26266888032188      104.03746981013396      115.11788821795670
H          127.80812971567737      104.25463718909018      113.63598358754247
H          126.24318252790243      104.87974869837149      113.13997646907023
C          126.45671486239294      105.38278072706851      115.81734485753891
H          125.19948617603377      103.79242198356147      115.14313158915529
H          126.79680999372771      103.25814998633875      115.66540461257603
C          127.92516758054668      105.74755146399492      116.03635597970043
H          125.98460386717196      106.17470530622477      115.23188196479225
H          125.96623631468526      105.36022215256764      116.79354623894575
N          128.02733961500280      107.02977389566145      116.69361207066697
H          128.41140443813634      104.98204115666671      116.65060159663355
H          128.45401651036590      105.82912945515089      115.08491081412117