3536
 energy: -3716.239089301932 gnorm: 0.000808289600 xtb: 6.6.1 (8d0f1dd)
C           45.06694603788284       59.61013324373788       60.67880793117728
C           44.36249164701112       60.80581467980537       60.03985710358432
C           42.85149000577764       60.67018525540063       60.20395365378932
C           44.77191663186584       60.90469119492403       58.56707032691793
C           44.23326051008596       62.10786910918542       57.77829678725735
C           44.72414573911845       61.99323083133039       56.33645528415009
C           44.69194595148999       63.42192212660893       58.42105783168341
C           44.40049599698460       64.71217314945528       57.64335351446941
C           45.18666713327502       65.85147949127838       58.29047124314660
C           42.90073286010856       65.02943056657973       57.61998230987155
C           42.49802328321228       66.09353959073411       56.58932899272542
C           41.10556591892080       66.63214255511539       56.91953246518446
C           42.52733249583055       65.54361779557748       55.15118834411074
C           43.24592897069559       66.44476600364490       54.13343601212220
C           42.87288283304844       66.00951347444470       52.71736605103247
C           44.76075912327123       66.36612262465596       54.35514659570856
C           45.66301256919033       67.12391551425576       53.37139096290188
C           47.11582348787285       66.84815612780643       53.75740239253302
C           45.35220103079596       68.62458219240582       53.35987193533568
C           46.29700049240395       69.50930330092467       52.53165063022090
C           45.89946342283278       70.97123747508419       52.73977198865094
C           46.27337392155181       69.16537516422532       51.03658815299213
C           47.51154735276907       69.65058108643673       50.26005438313073
C           47.14426887323173       69.85652253953050       48.79076963334320
C           48.65226609779375       68.63451068196947       50.40242399563606
C           50.03812283994811       69.08639788419798       49.91391242554794
C           50.93517501564416       67.85791066735665       49.76139433763361
C           50.64508049024396       70.10120566458130       50.89204309522201
C           52.05306932526093       70.61954953441776       50.56070667586442
C           52.57419750840872       71.42365175299422       51.75170738011467
C           52.05250168651455       71.46869332561513       49.28388364046575
C           53.43530273301933       71.81760833589014       48.70752630304401
C           53.26700414469529       72.88521666551931       47.62656831992935
C           54.10948722690263       70.56153351563403       48.14575708454556
C           55.49605216942942       70.73328874155921       47.50465853962949
C           55.94933192167224       69.35611419026033       47.02309804710310
C           56.48765362141755       71.35968096534465       48.49534279680546
C           57.97676064971031       71.29420879859471       48.11989429610868
C           58.79053029870263       71.93797667900284       49.24145515666999
C           58.26213369396245       71.96237873755777       46.77081118743827
C           59.70710802922738       71.85684419040696       46.25236162785227
C           59.79865364213030       72.62779558013523       44.93431996859884
C           60.15545893479513       70.40099116340541       46.06678381771503
C           61.64162183161296       70.24247867396596       45.68374808487782
C           61.78431035961938       69.66921890954971       44.27384444998815
C           62.39770510360059       69.33819131989557       46.66739308534331
C           62.61418046915770       69.93968714611499       48.06361384947633
C           63.67223386996135       71.04012346462238       48.02370998091969
C           63.01923277338928       68.82103170257783       49.03303734971918
C           63.18203670963494       69.21170023953771       50.51087020777207
C           63.68349821731945       67.99264627753541       51.28305764432617
C           61.85087972531421       69.72735233424437       51.06828778302854
C           61.76101108911634       69.98777998136464       52.57823374982841
C           60.33107268168010       70.42672813175682       52.89179472891839
C           62.79014429791410       71.03705707856624       53.01497708956151
C           62.68618377025049       71.54753368120618       54.45991328836183
C           63.74785339448177       72.62829595475188       54.67022880037531
C           62.85579746390697       70.41672035456291       55.48083188628690
C           62.44083618655052       70.77075298721448       56.91804265212362
C           63.02142499704504       69.73180080616872       57.87631176342670
C           60.91182036441542       70.83478597284093       57.03226350566442
C           60.34743863735724       71.34565062828825       58.36597888593509
C           58.85050154842052       71.04265747723329       58.42406009956009
C           60.59386326705105       72.84884763905083       58.53937578453721
C           60.25011036781919       73.38144004818075       59.94441386117543
C           59.06379670525286       74.34384293584252       59.88815416279033
C           61.45024198878119       74.08728824339485       60.58852052429760
C           62.60898012752992       73.14913455512806       60.95578717923303
C           62.28490285938337       72.36361752416153       62.22449712503995
C           63.90514973202450       73.95201961204315       61.13445200990098
C           65.20113525211245       73.13604996821338       61.00633161945812
C           66.35215556350084       73.93006586614351       61.62318004786257
C           65.47142011937507       72.80806139747132       59.53393525009601
C           66.68161216037147       71.90881448283297       59.25013870778026
C           66.88703476604974       71.83385295778726       57.73551898837196
C           66.52931709995725       70.49290103340100       59.84012601580930
C           67.41003090003282       70.19645204897144       61.06060506199734
C           68.89549022126212       70.27385369642738       60.69919481244021
C           67.14380573378068       68.79184413700828       61.62665047062245
C           65.73277718338183       68.48648905752385       62.14221835484015
C           65.31371460029152       69.46399148947590       63.23669670942814
C           65.66555209443437       67.06112610654544       62.71611666345935
C           65.79555934110562       65.92566565757255       61.69537083727464
C           64.54587331821369       65.84311666019347       60.82044518655149
C           65.99822375509338       64.56431267146428       62.37693939772146
C           67.22958477457600       64.41673206762162       63.28096219524424
C           68.50252621579440       64.93838279733347       62.61522868195163
C           67.44813757370538       62.94704196064711       63.67018968050370
C           66.23162476511247       62.26890592481034       64.29397746249030
C           66.58932609318929       60.91037213109103       64.88416979649318
H           44.81279617133303       59.53555062877184       61.73368013353369
H           44.76412059262657       58.68555643229988       60.19030028767283
H           46.14695464955097       59.70686248576850       60.58928698987435
H           67.00958952940555       60.26219386374333       64.11760929966249
H           67.32583928808798       61.01544591152842       65.67905781762106
H           65.70625325472587       60.42566491701691       65.29505721300345
H           67.75170247310236       62.38571754921195       62.78434432970423
H           68.27700510385615       62.90238527054551       64.38333393145473
H           65.10710483553316       64.34963154410639       62.97044531069781
H           66.06149250399916       63.80491453028784       61.59347969442373
H           66.65370683751068       66.11688535872113       61.04720884466261
H           63.67039375798085       65.63014775107828       61.43005858742035
H           64.37529685134722       66.77386357017487       60.28824732716541
H           64.64824480291072       65.05041997751732       60.08364738784057
H           66.45367247103123       66.97044179632935       63.46578062628703
H           64.71165632483240       66.94050095964499       63.23630940554030
H           67.38894936974512       68.07331522198062       60.84168623151557
H           67.84515914695814       68.62796518423939       62.45090080060737
H           67.06301833088938       64.98518800561632       64.20393547145223
H           69.37036035543564       64.71290880845584       63.23276081393408
H           68.64536128718176       64.46556892201203       61.64592702071439
H           68.46439745447196       66.01424679463572       62.47219282304385
H           65.02078571504943       68.56943350171360       61.31697374981150
H           65.29275477532777       70.48675730112157       62.87007960278003
H           64.31923719177966       69.21331022235444       63.59795386440540
H           66.00638648845569       69.41759225468320       64.07519260094260
H           67.21128219400779       70.94080196377239       61.83712396302699
H           69.51048011323684       70.04096277548238       61.56646250014994
H           69.13209228715580       69.55860786434040       59.91392147095523
H           69.17637266895561       71.26387721882388       60.34948046103040
H           65.48431183834170       70.33534813571033       60.10822331324706
H           66.77759795430553       69.75911722092704       59.06960276601553
H           67.56681082793936       72.38772369864286       59.67473011234549
H           66.01785167656091       71.38629283790097       57.25660120513771
H           67.02982090586252       72.82808292264011       57.31561190128539
H           67.76566968230105       71.23780029391881       57.49624146062286
H           64.58792315309860       72.32738067776006       59.10850980267214
H           65.61635220363806       73.75229181331513       59.00004509925984
H           65.08770086409842       72.20261356184125       61.56371585769345
H           66.13528689431293       74.16606161740575       62.66329582964354
H           67.28222738940465       73.36875490621188       61.59550171423786
H           66.49918675628358       74.86461566039083       61.08461471650723
H           63.94147695420597       74.75350903642739       60.39135938299804
H           63.87890164308509       74.42955510863123       62.11723953629763
H           62.74656779363147       72.43640584968857       60.13811071779047
H           63.07825464641887       71.65815639025641       62.45842465187569
H           62.16588467647559       73.03830813209966       63.07058007182209
H           61.36090345483387       71.80360526201224       62.10557906869969
H           61.80659393532151       74.85105105258000       59.89168489240021
H           61.12005515133960       74.60567614541628       61.49256009988136
H           59.96774622422164       72.54099188179529       60.58557709732120
H           59.32732471623576       75.23846622440956       59.32684847849795
H           58.21027783543843       73.87606493580931       59.40418516318721
H           58.76447415644877       74.64704177568299       60.88985749039316
H           61.64087522980103       73.06311619215512       58.32252955450663
H           60.00290478319857       73.38484182876334       57.79391197459717
H           60.83565230651245       70.81448618561548       59.18977658225558
H           58.41816659095970       71.38058543876954       59.36248320818657
H           58.33076550091465       71.54229460551491       57.60893542557710
H           58.66746269461866       69.97392553032394       58.33438995476199
H           60.52140934295038       71.47976970614717       56.24191071792239
H           60.52342304291469       69.82833155968427       56.85425219683420
H           62.86530752974642       71.74608723543075       57.17523471398633
H           62.57895138602429       68.75537360572606       57.69031370603282
H           64.09891388723449       69.65086108517937       57.74735833121706
H           62.82842985286795       70.00495300886534       58.91071494773073
H           62.26889402990124       69.55108018252243       55.17058772466625
H           63.90700892559553       70.11611083030509       55.47923288281165
H           61.70722644684121       72.01438187871233       54.59250809118014
H           63.62854667770294       73.42874473062479       53.94216196894737
H           63.67505370154313       73.06606853368866       55.66269302668016
H           64.74528847720829       72.20813718216246       54.55519791440789
H           63.79199714577631       70.62622211199324       52.87472582081895
H           62.69735281572053       71.90047381524654       52.34898190782555
H           61.95134339569599       69.04901464995957       53.10635990383896
H           59.61985896255255       69.71592057249583       52.47731985694844
H           60.16102006297793       70.48575693256414       53.96296799555284
H           60.13240649558070       71.40079472136547       52.44852514235365
H           61.59471805210650       70.65860779963056       50.55811883294517
H           61.08205113456577       68.99367943428106       50.81765208297264
H           63.93797032519554       69.99935349862245       50.58893408062423
H           63.92854637507334       68.25571673961674       52.30850818556521
H           62.92662366083087       67.21140915666935       51.29578665780252
H           64.58197486003695       67.59380685896126       50.81744630977224
H           62.26596947222909       68.03059203825087       48.97770212576867
H           63.96135435880959       68.39350433234237       48.67994553275419
H           61.66921066418382       70.37708526296683       48.39776340418170
H           63.41588009030227       71.80294121482122       47.29218555889253
H           63.76505950302924       71.52867966918949       48.99059711292947
H           64.64169645344580       70.62415837885219       47.75394265661215
H           61.84564298867230       68.39991606562046       46.76034283638747
H           63.37537388848354       69.09820899263836       46.24086353719994
H           62.11650746464679       71.22816909856822       45.69316889882113
H           62.83010790436985       69.64388205031747       43.97464886369855
H           61.39863519836379       68.65272366370174       44.23964917988202
H           61.23898419078773       70.27214573898394       43.55095019585317
H           59.97544560533299       69.85885785709627       46.99435508603740
H           59.52898088749795       69.94162351197831       45.29811346303653
H           60.37996120598538       72.33708951851975       46.97080621299226
H           59.14320566091099       72.18163857501949       44.18808070856793
H           59.49545714622344       73.66358298662280       45.07597723369727
H           60.81265544747784       72.62572149540101       44.54270196339680
H           57.60684426530042       71.52948980099872       46.01260859452262
H           58.00575986662879       73.02313555402120       46.85066322802981
H           58.26052615303804       70.24337135060301       48.06270998113914
H           58.54982904188978       72.99596732612888       49.33190647720027
H           58.57313032706228       71.45400681576075       50.19038575230718
H           59.85682325630898       71.84580262364784       49.05403575817925
H           56.21742131000279       72.40776737733019       48.64461023120533
H           56.37047284779491       70.85408390512144       49.45767410316736
H           55.40266432176631       71.38516860997579       46.63039685455031
H           56.08957731810996       68.68886892987973       47.86960430888893
H           55.19310933104550       68.92549759554088       46.37058313320652
H           56.87997557089673       69.41061469229881       46.46724340429838
H           54.21216277567803       69.83245290737365       48.95239794164711
H           53.44269855295447       70.12654740666414       47.39526449467870
H           54.05718619819401       72.23370559619860       49.50466858117023
H           52.68980736491831       72.49273455291359       46.79128996089071
H           52.74372580034486       73.75247322031427       48.02500861228133
H           54.23065314174606       73.21929318785403       47.25109858108424
H           51.49245313845873       70.94698985623197       48.50505711027715
H           51.51785743482038       72.39857554910613       49.49805452197003
H           52.71435190375705       69.76113896932053       50.42311350322686
H           51.95911454295890       72.30737232933707       51.91274482351765
H           52.55116263532243       70.82235039425721       52.65808347715396
H           53.59920461154010       71.74494862678711       51.58891952448609
H           49.97696132065015       70.96185479800181       50.97165434454661
H           50.68749356641305       69.62977601995544       51.87764543568000
H           49.92802379722428       69.55009699934159       48.92940743873513
H           51.87984810240160       68.11763716461552       49.29108487164615
H           51.13995066224241       67.41824288572136       50.73569180776752
H           50.44893047347273       67.10654780027816       49.14234502094681
H           48.74637187736106       68.35346810039525       51.45339927341004
H           48.36350131101326       67.73505627929040       49.85199943809768
H           47.83248079224927       70.61267553228724       50.67008201271830
H           47.99958520431211       70.19986424333861       48.21442886508506
H           46.78919861889048       68.92445812925094       48.35517419445004
H           46.35651699197461       70.60121894553791       48.69502980545493
H           46.19520004986713       68.08609844547200       50.90099964292220
H           45.37601651473729       69.61032484324362       50.59933977519169
H           47.31569203531814       69.38303953175966       52.90703197055201
H           46.53771282231776       71.63506766387559       52.16175554238298
H           44.86918793711554       71.13296705551363       52.42651926353012
H           45.98363684801566       71.24659204797082       53.78858424986934
H           44.33584218586086       68.77176666211919       52.98707584940173
H           45.37523380684009       68.98534766903057       54.39271929234878
H           45.49248850329927       66.71794770436945       52.37008972423507
H           47.36505507329743       67.35807502807768       54.68618661036748
H           47.27006314506938       65.78075792492864       53.90065675471864
H           47.79968065486693       67.18073363970554       52.98201693761435
H           44.98824040566581       66.72021932403297       55.36207662629230
H           45.04547952987161       65.31063394287636       54.30793094742669
H           42.90572897708455       67.47526362426588       54.28425731105811
H           41.79174294026088       65.98796015611796       52.59527866968676
H           43.27784853533473       66.69136867735880       51.97422506346331
H           43.25790489393280       65.01209950771171       52.51763450386773
H           43.00830117743032       64.56380868577432       55.13716666064020
H           41.49864100843477       65.39065632808369       54.81654637543144
H           43.19509412338628       66.93259343197431       56.66201311345361
H           40.79583771936343       67.37328262289471       56.18478512700440
H           40.37454338193491       65.82564680870733       56.92336424976490
H           41.09661590791870       67.10205565650128       57.90148736552979
H           42.33432634930830       64.11990619958628       57.40917140938351
H           42.60645373015491       65.36930495053819       58.61616794592095
H           44.75777354333083       64.60099829685805       56.61854548599865
H           46.25538980969608       65.66534551266588       58.22280193548768
H           44.98265836115821       66.80047194250076       57.80162204893943
H           44.92126716689604       65.94401183196251       59.33981250507770
H           44.22243348930827       63.51623987339071       59.40224265690314
H           45.77337171070644       63.35802804418965       58.57047765400561
H           43.13998800378218       62.06519103143010       57.77254295783469
H           45.78931539948779       62.21077934313322       56.28741815095790
H           44.56043318333671       60.98891296796813       55.95203619682901
H           44.19783340807651       62.68490919185986       55.68457418860169
H           45.86446616365573       60.92954848565113       58.51736358462694
H           44.44467430062414       59.98941258835573       58.06410745766963
H           44.69162784506294       61.70774572390442       60.56554478852213
H           42.33564289434327       61.55299936623790       59.83433870017930
H           42.48869186240820       59.80228068823921       59.65554818254851
H           42.59530597967925       60.54294691095824       61.25379115885414
H           65.82378669147307       62.90879689725881       65.07872200427022
H           65.45996292257784       62.13126336761299       63.53571787788093
C           37.16287872421012       56.72468792546910       52.17526603071247
C           35.80352431225626       56.26284599257595       52.69195667899984
C           35.10812183634845       55.41825477675113       51.62427369597192
C           34.89776966473002       57.43868088903108       53.07820958706728
C           35.43639292144327       58.39424285417634       54.15241328433346
C           35.69741366204148       57.66554607174018       55.46998480205787
C           34.44101583494011       59.55286248803069       54.36908614863709
C           34.85462443746959       60.91300449614605       53.78572770503436
C           35.06276974849932       60.83929746409078       52.27287144390451
C           36.10187784268023       61.50771233125884       54.45123481886586
C           35.99119734817285       61.80987473381797       55.95227180629593
C           34.81118988201879       62.73085984716125       56.25739502777034
C           37.30255426998479       62.45316156352549       56.42609462519908
C           37.54738648101265       62.37360120493658       57.94089693721448
C           38.53816008238088       63.46094351836955       58.35211546052020
C           38.07275283092424       60.98471921912223       58.32588788264810
C           37.97937342659085       60.61874979299009       59.81560337906543
C           38.90191492280173       59.43202774018093       60.09001255051593
C           36.52703765878054       60.29957400253171       60.19213753820464
C           36.25881762798615       59.92181015604124       61.65660669071195
C           34.81431898553459       59.43287808447440       61.77524124853498
C           36.51382205146452       61.09726951780348       62.60701829473572
C           36.61376283893195       60.70457647136710       64.08837143859537
C           36.53103294192207       61.96531413514391       64.94982447918942
C           37.90711136959076       59.92051947831860       64.38577846258566
C           37.68057532919365       58.58206111018623       65.09739803808183
C           37.13464411101946       58.80316762832280       66.50903112132569
C           38.97248548368179       57.75611514604429       65.19756978919098
C           39.59720913484353       57.27074399288938       63.88272677415465
C           38.62264263037621       56.40717822190073       63.08286654585290
C           40.87153142597317       56.45961317072475       64.16867265530583
C           42.09253542702010       57.28814877529640       64.58699162074195
C           42.73452398229612       57.94563916497320       63.36708287085710
C           43.14673397626376       56.41541624234321       65.28212086304168
C           42.79999217117997       55.96008081134834       66.70414356695878
C           42.88951579231291       57.12636298039634       67.68584654418281
C           43.74879570983502       54.83642605081958       67.14823576457783
C           43.41904092209148       53.46269301459402       66.54970026381015
C           42.30542355462210       52.79243784627548       67.35398044506402
C           44.65232139391949       52.54985985336619       66.52561085284228
C           45.69930629947065       52.90203090307141       65.45973826888870
C           45.25044726626764       52.42818449485974       64.07857472171281
C           47.05254514545170       52.26752087078703       65.80944342050672
C           47.81537843996926       52.98911067783074       66.92906729543309
C           48.58976455023665       54.17685714012194       66.35967688860075
C           48.79001766384022       52.03756868394522       67.63520749993926
C           48.13295184921513       50.99246001802546       68.54713767605945
C           47.80372000555449       51.59083597861422       69.91300961334329
C           49.04676232504828       49.76590219157898       68.70123721114363
C           48.91928848472072       48.78179393112245       67.53114981133469
C           47.70068432497085       47.87964023152103       67.73369844469157
C           50.16421635631058       47.90251054126908       67.35271790774914
C           51.45255190595590       48.59638725790934       66.87770884171834
C           51.23130703407568       49.36403583313668       65.58047692910725
C           52.52711862855343       47.50934579591444       66.70811968657320
C           53.88220819306046       47.93788176319249       66.12667833711427
C           54.70022831922207       46.68089144799762       65.83121667344923
C           54.64400552571996       48.87679339568855       67.06902826486483
C           55.81594471688506       49.62740590578515       66.41306548575245
C           56.80259678522355       50.07213387041177       67.49185740676347
C           55.30081412818834       50.82463617944050       65.60407329615155
C           56.31622811489645       51.49539650189291       64.66404367523410
C           55.75233511579471       52.83722725962983       64.20060039865211
C           56.62327977431793       50.59383722219497       63.46357019078278
C           57.74561277010655       51.04396698698050       62.51320593317556
C           57.77455621656588       50.06052068736179       61.34379883558386
C           59.08800349550731       51.16099490507188       63.25449924517127
C           60.33607407353217       51.38110972232914       62.37434635066142
C           61.00547325865723       50.04820057728964       62.05421417330344
C           61.32476195812772       52.30928308735697       63.10122782877599
C           62.69862423720674       52.51681479890996       62.43896804657268
C           63.54792493501700       53.41752838073172       63.33627178774766
C           62.55991798089872       53.10853397449886       61.03182164332202
C           63.86239633183327       53.34189201408823       60.24509613022700
C           63.50090084719495       53.90710827950609       58.87128091572273
C           64.66835498482850       52.04181941372435       60.12603067311222
C           65.88174417368612       52.03867756613954       59.18079620023848
C           66.49120057802095       50.63639544815911       59.21264960377410
C           66.92212619172740       53.09041286047935       59.58223499763623
C           68.10158676694655       53.25064831811905       58.60804423392538
C           69.24039627847415       53.97766097646578       59.32563368314828
C           67.69367676914030       54.00121738924838       57.32737967819281
C           68.24964511484059       53.41597282742845       56.02059670954920
C           69.77663731928831       53.38803977149560       56.00916617525098
C           67.73005850371763       54.24825269366275       54.83935220503040
C           67.84429920894455       53.58345931252180       53.46049048404294
C           67.72467149305653       54.64448444269411       52.36714065530578
C           66.77834229812652       52.49459005131726       53.29472588922805
C           66.84681790010518       51.77515785086588       51.94976674028171
C           65.98238909525092       50.52266916661308       51.91709857859212
H           37.72821588351972       57.22696705796896       52.95608153864715
H           37.74511496957734       55.87175389826277       51.83252893794294
H           37.03937674613849       57.41172438511763       51.34075575434144
H           66.03512048448162       50.05705064753590       50.93639153564025
H           66.32886224717048       49.79787639994068       52.65153388344617
H           64.94418692566177       50.76368285783508       52.13443917424706
H           66.90457661096903       51.75712295983269       54.08998972620368
H           65.78773703160313       52.93829827120994       53.41864676986881
H           66.68071593295660       54.49831963798069       55.00848661143630
H           68.28887626338235       55.18751566825946       54.82580295518816
H           67.88314225780280       52.38760451795360       55.92807637652380
H           70.17468174799505       54.39015177717200       56.16024253996090
H           70.16642277893092       52.73639435650520       56.78708434933741
H           70.14620869531730       53.02033055344362       55.05483688035009
H           66.60478817767505       54.00283201577026       57.24735446384959
H           68.00989377139263       55.04363583756675       57.40606994157892
H           66.43721708171392       54.06245907373103       59.68670649921395
H           67.31605623311549       52.81669835467993       60.56426578904534
H           68.83125174177552       53.11658549709430       53.36716245509772
H           66.71380708030198       55.04556837411189       52.33850230406542
H           68.41316834640335       55.46641603516699       52.55387994451056