3536
 energy: -3716.223948126309 gnorm: 0.000978189085 xtb: 6.6.1 (8d0f1dd)
C           45.06653109053192       59.61067951044490       60.67851610410283
C           44.36155143296079       60.80664481252806       60.03971248149275
C           42.85034171610587       60.67035492927977       60.20265184714981
C           44.77169192718220       60.90491850976680       58.56682405059748
C           44.23263921804401       62.10815727241342       57.77811884586396
C           44.72400004496227       61.99328747630504       56.33629369667116
C           44.69167889323592       63.42226544803454       58.42093797491105
C           44.40042929239420       64.71259420074526       57.64267499230306
C           45.18630585066916       65.85177199893585       58.29097790971040
C           42.90043844676086       65.02968701455652       57.61943760139818
C           42.49790683928943       66.09416679201433       56.58871503594648
C           41.10520813138680       66.63149136994139       56.91910985995794
C           42.52748880743092       65.54345351409897       55.15070299494845
C           43.24586780559820       66.44478881421981       54.13286966417289
C           42.87379102815036       66.00858484747999       52.71698568332000
C           44.76081291081289       66.36604803793239       54.35525013179577
C           45.66240081411823       67.12423987953950       53.37080518111719
C           47.11557019423762       66.84825689711666       53.75706025780451
C           45.35182357199032       68.62490049600520       53.35970043955160
C           46.29767181041110       69.50907230946562       52.53186722649004
C           45.89935087798768       70.97066972328258       52.73989053825503
C           46.27343155132843       69.16519227108323       51.03666723616916
C           47.51145088988809       69.65102108098169       50.26036940498338
C           47.14470487750321       69.85569392977844       48.79120114432691
C           48.65206652311806       68.63451691680309       50.40251460860780
C           50.03763698467526       69.08714851702523       49.91360454912321
C           50.93486183969222       67.85843379486775       49.76084119224196
C           50.64470286998767       70.10179884253654       50.89194369499857
C           52.05318923063518       70.61951031876460       50.56062268787951
C           52.57344716542365       71.42435123705857       51.75187304422494
C           52.05242985695055       71.46891290406944       49.28392712291173
C           53.43546882742403       71.81822743834154       48.70841357309517
C           53.26710112030467       72.88470278218364       47.62686581552119
C           54.10914705620717       70.56170088017505       48.14655032594159
C           55.49544160143279       70.73424802079231       47.50501060081695
C           55.94862070735978       69.35699318524327       47.02279292875540
C           56.48717530261803       71.36027622256805       48.49578379056998
C           57.97630632871964       71.29428388085316       48.11967335738476
C           58.78982534016656       71.93881802924491       49.24128903323831
C           58.26150121496650       71.96278904604783       46.77065446296270
C           59.70685336575114       71.85783784643721       46.25317237624804
C           59.79801585044464       72.62723565682272       44.93464810471689
C           60.15516417740957       70.40167793290126       46.06747245435618
C           61.64138319776681       70.24385800439049       45.68390800604375
C           61.78404556272832       69.67057687740267       44.27405284359047
C           62.39785649033072       69.33927032555205       46.66725035824373
C           62.61415550722870       69.94121748449646       48.06359596821925
C           63.67302853927440       71.04050797126580       48.02387782366340
C           63.01887863987985       68.82166344554041       49.03256646700703
C           63.18229147378103       69.21265247922669       50.51042756917190
C           63.68362632928442       67.99324000002323       51.28270722062912
C           61.85112707229254       69.72843606027722       51.06822412956789
C           61.76171500451347       69.98817002116178       52.57863612834854
C           60.33163173089812       70.42827830293660       52.89159458300900
C           62.79085472323602       71.03772550444053       53.01509647585926
C           62.68598753991115       71.54838559082496       54.46002352715761
C           63.74833928819460       72.62809879116375       54.67079859097785
C           62.85533636108038       70.41654933161846       55.48035244393364
C           62.44061538431283       70.77076578137778       56.91769362302938
C           63.02164602064224       69.73173657627177       57.87594998291577
C           60.91146317686248       70.83485171979278       57.03188073950525
C           60.34796261833693       71.34566565281291       58.36637935645535
C           58.85065535297174       71.04270184799077       58.42410883378606
C           60.59404679025248       72.84906362907044       58.53951202815843
C           60.24984758681096       73.38093766361339       59.94500780849216
C           59.06360889875530       74.34345576816743       59.88784705410702
C           61.45029937307476       74.08702295420981       60.58832454509144
C           62.60907489012202       73.14876360858399       60.95543121268728
C           62.28468733796812       72.36414806318085       62.22506497026620
C           63.90519634149295       73.95175765139926       61.13423429310119
C           65.20088503767118       73.13523758766240       61.00641272167966
C           66.35185492852737       73.92950855733655       61.62241397842043
C           65.47102020293212       72.80799647648787       59.53361531264287
C           66.68154062079670       71.90917231906386       59.24992148918497
C           66.88695487866791       71.83370960338478       57.73524986480510
C           66.52904422504409       70.49312770757804       59.84014048502868
C           67.41013653169433       70.19693557849247       61.06072733438067
C           68.89520676257624       70.27406423448586       60.69871563746074
C           67.14425292485038       68.79201583970139       61.62643179090696
C           65.73293395491135       68.48696653885000       62.14197889609917
C           65.31472817766603       69.46422836168881       63.23716838467148
C           65.66592212966623       67.06163216917496       62.71665043278162
C           65.79626570931107       65.92607488648083       61.69601560035250
C           64.54638116092303       65.84363883824986       60.82063238748855
C           65.99796946456424       64.56442654882068       62.37764533828030
C           67.22990169229881       64.41728870205621       63.28137740973526
C           68.50233333166184       64.93855729926106       62.61453571922215
C           67.44799316946673       62.94739186606456       63.66998408055581
C           66.23110079924240       62.26964489703344       64.29399361192247
C           66.58979698898547       60.91127194472531       64.88446378491548
H           44.81187697945801       59.53597180726369       61.73317039369289
H           44.76440069730972       58.68635484893809       60.18920039705354
H           46.14656365961481       59.70802362672949       60.58902359877372
H           67.01030322776762       60.26341481218379       64.11794988758407
H           67.32599566819758       61.01832638505793       65.67867437446111
H           65.70699767653822       60.42622888530126       65.29560671035854
H           67.75110885920445       62.38619926103510       62.78410576540058
H           68.27541045252929       62.90291454451996       64.38348678759047
H           65.10605287211291       64.35058302829201       62.97048142535086
H           66.06008596670137       63.80533980436633       61.59370311679019
H           66.65373087525774       66.11664994041452       61.04761765305727
H           63.67073199551005       65.63050994100567       61.43015545271196
H           64.37559866062092       66.77427260491555       60.28821602632875
H           64.64815382990746       65.05078961559948       60.08368133078854
H           66.45438341747081       66.97052821627867       63.46498412734810
H           64.71204870793699       66.94019704979365       63.23644906421252
H           67.38875095453793       68.07334285361856       60.84140425668426
H           67.84439419407848       68.62843688598248       62.45087705410847
H           67.06214708762690       64.98551605671051       64.20325041661162
H           69.36915344495658       64.71221826865600       63.23225301209327
H           68.64429427529321       64.46535488517785       61.64531199144833
H           68.46420515913952       66.01429725675908       62.47176693565185
H           65.02050205159559       68.56930179780022       61.31706245593516
H           65.29407917867950       70.48642373954021       62.86983226632876
H           64.32018659407899       69.21335837909237       63.59824654170797
H           66.00813908113220       69.41642631630393       64.07441140751168
H           67.21045686874761       70.94035420799152       61.83689703735884
H           69.50956424184383       70.04102962245429       61.56599880584707
H           69.13151311295432       69.55891193129055       59.91335996986736
H           69.17506689990452       71.26407155208014       60.34916800225271
H           65.48384284474709       70.33538615095551       60.10792879591820
H           66.77698381341996       69.75906756665647       59.06963245443309
H           67.56618463297049       72.38729464684303       59.67462728990363
H           66.01786298631835       71.38539530450159       57.25650655595275
H           67.02878800036358       72.82778249415716       57.31550844454109
H           67.76590606956860       71.23804996926411       57.49626165519786
H           64.58783430539560       72.32718949146800       59.10752843844455
H           65.61665633297306       73.75189427153593       59.00047836320688
H           65.08688639337434       72.20170305648823       61.56323056192065
H           66.13468407929531       74.16563430731701       62.66224804233262
H           67.28184376674643       73.36833928054948       61.59479034257412
H           66.49780216004980       74.86344576394131       61.08308849525041
H           63.94141449017978       74.75236448938679       60.39096551506153
H           63.87872896431932       74.42814414734838       62.11702050846299
H           62.74647309627154       72.43508726427790       60.13859852731359
H           63.07791790843476       71.65859435060712       62.45931886886258
H           62.16577740499699       73.03960355615955       63.07019960302209
H           61.36045510331011       71.80412995998850       62.10655725421572
H           61.80608003371927       74.84968780223736       59.89097037382945
H           61.12002643150502       74.60414628475303       61.49232144751836
H           59.96780658811690       72.54002151311371       60.58539661413064
H           59.32859597901915       75.23768852580329       59.32730492081375
H           58.21051645443934       73.87589361483677       59.40284302319726
H           58.76396803238636       74.64540203751049       60.88955019063267
H           61.64087848304152       73.06242485225536       58.32280859255077
H           60.00258068919045       73.38379436587546       57.79415723530229
H           60.83604928553127       70.81358060784262       59.18913520636797
H           58.41880186947401       71.38109230193504       59.36229439899828
H           58.33198023346860       71.54213246306048       57.60843247128107
H           58.66690265823091       69.97376239097277       58.33457485092704
H           60.52179122204748       71.48056185906159       56.24224799757043
H           60.52240169670925       69.82854157693623       56.85278073145836
H           62.86457829467101       71.74530380377662       57.17445883701210
H           62.58052294333488       68.75449561686004       57.68930371888673
H           64.09909331478528       69.65190462048932       57.74706661880195
H           62.82756078643732       70.00452872600177       58.91004593278021
H           62.26849996128917       69.55036781158276       55.17071176887393
H           63.90629243723754       70.11576527472810       55.47922180050110
H           61.70695652260002       72.01386190441245       54.59237860306775
H           63.62830959348128       73.42757058101232       53.94257039260307
H           63.67487647592282       73.06497928513484       55.66328338628281
H           64.74498555071187       72.20668448143492       54.55568702738952
H           63.79208780039242       70.62600022639212       52.87530402503036
H           62.69685467168402       71.90013629745245       52.34934242770168
H           61.95106443444848       69.04899689809274       53.10625971863027
H           59.61992562698326       69.71798859945964       52.47666907115681
H           60.16153955281050       70.48614908377806       53.96281019685771
H           60.13501743439237       71.40235061337518       52.44846840063574
H           61.59573660118036       70.65968485092752       50.55906489208805
H           61.08207896425095       68.99480278925928       50.81770330900547
H           63.93779227359834       69.99928798333994       50.58831305296388
H           63.92840438668615       68.25614031986461       52.30822244417980
H           62.92637184896492       67.21201004183889       51.29542014018777
H           64.58170345105155       67.59365988975087       50.81694702717783
H           62.26574757400538       68.03076460573459       48.97790194934139
H           63.96075375511136       68.39346602317828       48.68001615423032
H           61.66910996537000       70.37706305540947       48.39816006660882
H           63.41560021134470       71.80219860055453       47.29236381104440
H           63.76575536908426       71.52833930987748       48.99093296797949
H           64.64146483467123       70.62308881696146       47.75372005240466
H           61.84634767334295       68.40040965045401       46.76067507722770
H           63.37545242578784       69.09955831477659       46.24126718330030
H           62.11589007992092       71.22870101528113       45.69443237375457
H           62.82971035822606       69.64618377511340       43.97531107089844
H           61.39903810115045       68.65364665484030       44.24039645484399
H           61.23772238509259       70.27349721090837       43.55255100209333
H           59.97544324413381       69.85809628260596       46.99455307299368
H           59.52915962090965       69.94235007603312       45.29864488631336
H           60.37915268999870       72.33702983211363       46.97190667212588
H           59.14252770483532       72.17977072117398       44.18949934496334
H           59.49444651668821       73.66245882345541       45.07637319835984
H           60.81192582672606       72.62472882668725       44.54352626552607
H           57.60660056942336       71.52923170346288       46.01288927667839
H           58.00544223730603       73.02266612450258       46.85194280027509
H           58.26003615823247       70.24326078163992       48.06312202949776
H           58.54799205520106       72.99609784009920       49.33066069119656
H           58.57257662204031       71.45475745038826       50.19043534979939
H           59.85592262577116       71.84658591754535       49.05351565523394
H           56.21779795324615       72.40797916851807       48.64429106396534
H           56.37011594980594       70.85451438390248       49.45822412780867
H           55.40192092436286       71.38536610832989       46.63150359751177
H           56.08863420092403       68.68886719634067       47.86911566481496
H           55.19236414661609       68.92671566030350       46.37027856155095
H           56.87960422254400       69.41129713311457       46.46762143208581
H           54.21245221131844       69.83192273768918       48.95278222223546
H           53.44288908447701       70.12691528423039       47.39591113710295
H           54.05725415111994       72.23325026577498       49.50564062583690
H           52.69025922666106       72.49096546137758       46.79225729616438
H           52.74354171768537       73.75120760589115       48.02554451369046
H           54.23084122620747       73.21843788174220       47.25200099461600
H           51.49299386563889       70.94668233628086       48.50553493059391
H           51.51866295902396       72.39816937186330       49.49927261293867
H           52.71428840607159       69.76080002185817       50.42389653529369
H           51.95768720524069       72.30730605249383       51.91135931695941
H           52.55027747131415       70.82336126202739       52.65867307973843
H           53.59839909368932       71.74526753673402       51.58873112640603
H           49.97732072791944       70.96232675164498       50.97043436627479
H           50.68678984201356       69.63033235685018       51.87761894610427
H           49.92752888677323       69.54997876872959       48.92972428096138
H           51.87947236343790       68.11826105683328       49.29055144016169
H           51.14007300441097       67.41855538742365       50.73527254958750
H           50.44851664546432       67.10671889723416       49.14239494882587
H           48.74708898597314       68.35214329523563       51.45317059998239
H           48.36411798605361       67.73548379119399       49.85111972066922
H           47.83266051106084       70.61209409959810       50.67095672846075
H           48.00001784852400       70.19977533426577       48.21572940144640
H           46.79129013483465       68.92269258868804       48.35621107322085
H           46.35635922837176       70.59919313994071       48.69579477059314
H           46.19498965461881       68.08604341568940       50.90039597258431
H           45.37696129545602       69.61131942893435       50.60036642785332
H           47.31612793520540       69.38199255945260       52.90751771193887
H           46.53778214662326       71.63386430035838       52.16190074484199
H           44.86940105063469       71.13059431687211       52.42600121822603
H           45.98296353564136       71.24558860764242       53.78874243101923
H           44.33643796726242       68.77117692024349       52.98574569020037
H           45.37477185777215       68.98463969581518       54.39253332640681
H           45.49236932753266       66.71741992356034       52.37038708401329
H           47.36466988658183       67.35803793616340       54.68598360549097
H           47.26997269529605       65.78067923324691       53.90053121605805
H           47.79938225725099       67.18077634731733       52.98170548489188
H           44.98902527431147       66.72032526535658       55.36192467747531
H           45.04636416200333       65.31063469582112       54.30818603320042
H           42.90665939847299       67.47447240225800       54.28404896406498
H           41.79300777014914       65.98676556545196       52.59542767549354
H           43.27927720575840       66.69046968788902       51.97457024197713
H           43.25937474002797       65.01111365211344       52.51831265721337
H           43.00819844534638       64.56345087395300       55.13699289677455
H           41.49910152438702       65.39086906621804       54.81644895505741
H           43.19550549308602       66.93213291198209       56.66179340533541
H           40.79689041675187       67.37229233691245       56.18416132530774
H           40.37533278540302       65.82423429276346       56.92218456383094
H           41.09654756026110       67.10061317650818       57.90124559193950
H           42.33515245732695       64.11987338926777       57.40881822413173
H           42.60768085750824       65.36933063734347       58.61585611461428
H           44.75868136106291       64.60114264111444       56.61853553387730
H           46.25532884086826       65.66604527288108       58.22506186199864
H           44.98193461873721       66.79984368592011       57.80148228746867
H           44.91934294749290       65.94370846754576       59.34002809058011
H           44.22163885431258       63.51665308977444       59.40159110725886
H           45.77308271318710       63.35774359043410       58.57063741080662
H           43.14007722696846       62.06502492908861       57.77274303046270
H           45.78932196081774       62.21069374118134       56.28839396334834
H           44.56018912753076       60.98877121295210       55.95260049854330
H           44.19768912063433       62.68528874400581       55.68538232152532
H           45.86421954923150       60.92998665699488       58.51784597010589
H           44.44444578763923       59.98982197327965       58.06421514253358
H           44.69107135886136       61.70807316511210       60.56487684818921
H           42.33534447704000       61.55321625844489       59.83264019179624
H           42.48930435608280       59.80237003565807       59.65345070689047
H           42.59466185699815       60.54279301750190       61.25237758614789
H           65.82377050546791       62.90970746682820       65.07855699794531
H           65.45841961963613       62.13234040215237       63.53617372201909
C           37.16354288662478       56.72459040733761       52.17545320838384
C           35.80412788624693       56.26242089574691       52.69267398986525
C           35.10906807665533       55.41849632202025       51.62458962699571
C           34.89847707345523       57.43846905379170       53.07851178645003
C           35.43739225621877       58.39415622869167       54.15250428750729
C           35.69785974920894       57.66507388667532       55.47020797118493
C           34.44141599806007       59.55217446748089       54.36962581608041
C           34.85479656344465       60.91222743304058       53.78640817376331
C           35.06301119058077       60.83845610022247       52.27371750350103
C           36.10229437137954       61.50697365805539       54.45149849835057
C           35.99125430446992       61.80846915091629       55.95274277258864
C           34.81179928840834       62.72981707574695       56.25751311803451
C           37.30266762550853       62.45255201522841       56.42583018100779
C           37.54754133753661       62.37328503016772       57.94060459824711
C           38.53872216045935       63.46046719783572       58.35179056420101
C           38.07323692960239       60.98427023017029       58.32526775821577
C           37.97935693008777       60.61818209827445       59.81506951285734
C           38.90224401905047       59.43099031697982       60.08845882033022
C           36.52722842538966       60.29809592617518       60.19146057458298
C           36.26002082253705       59.92046924042238       61.65623809750450
C           34.81567397502727       59.43193960864351       61.77469934664116
C           36.51454904616971       61.09667250785629       62.60609830432410
C           36.61395358513384       60.70394185594792       64.08746439683814
C           36.53135820190390       61.96451199865994       64.94873780844722
C           37.90763242493114       59.92019850273856       64.38518346188589
C           37.68050102861697       58.58155098902500       65.09665589742096
C           37.13524049162185       58.80309884975640       66.50816057563931
C           38.97248269786941       57.75573928531644       65.19751235322080
C           39.59712530052046       57.27089828710497       63.88227728259739
C           38.62284396952455       56.40655715345135       63.08271677406070
C           40.87123455915239       56.45914826116793       64.16872375835642
C           42.09197861238946       57.28786494873783       64.58755855872415
C           42.73439793323172       57.94566351094956       63.36758857578377
C           43.14672813387317       56.41530144523961       65.28246806755536
C           42.79940883548914       55.95982091402342       66.70454819579454
C           42.88897504141860       57.12632611230325       67.68604678049719
C           43.74865409376574       54.83631054602591       67.14823594098483
C           43.41840327117630       53.46267659864500       66.54896373965292
C           42.30541838040818       52.79265269369161       67.35387833042843
C           44.65186524711318       52.54978530348949       66.52599736451413
C           45.69900292259677       52.90242936962285       65.46028110031206
C           45.25033396017400       52.42790003317320       64.07887104394770
C           47.05225507025664       52.26724157907200       65.80984984654405
C           47.81510796908344       52.98888293559823       66.92963761623258
C           48.58956811305924       54.17706484655069       66.36017054440964
C           48.78991513466422       52.03717881177870       67.63551668731580
C           48.13232881823192       50.99209718294451       68.54761339274704
C           47.80373084589245       51.59108684306324       69.91332575361497
C           49.04688578629982       49.76607507278315       68.70106443912896
C           48.91916828438731       48.78241078589988       67.53039371895238
C           47.70079914945607       47.87996293361262       67.73358954132352
C           50.16424415962004       47.90287531851089       67.35305757851005
C           51.45287541243467       48.59674148919375       66.87889988192549
C           51.23148825592918       49.36400090099439       65.58092631207036
C           52.52738842654694       47.50976275307659       66.70857602045314
C           53.88212704908725       47.93871767417144       66.12632061033952
C           54.70068188051978       46.68159065371275       65.83193334329425
C           54.64363009738637       48.87752153268581       67.06928574163979
C           55.81605654387286       49.62744706955429       66.41351162152334
C           56.80219093660175       50.07270234929014       67.49231594223082
C           55.30019147523758       50.82472025181742       65.60452420560146
C           56.31632495440291       51.49568652722724       64.66528619238750
C           55.75259941928560       52.83790886047839       64.20152263846722
C           56.62310928624330       50.59402436608437       63.46456179796514
C           57.74561179604262       51.04443841405085       62.51412912719280
C           57.77407814579468       50.06021421506460       61.34474243244659
C           59.08823538985246       51.16057633927767       63.25553530292997
C           60.33579387939222       51.38147552791587       62.37441810999869
C           61.00589303117835       50.04832635389730       62.05518684303881
C           61.32473290235860       52.30930971335389       63.10188842994082
C           62.69893137138690       52.51605963475225       62.43969659592226
C           63.54795211963987       53.41724214088107       63.33673612413820
C           62.55944934864469       53.10801432743605       61.03232937015076
C           63.86231255697619       53.34158935516854       60.24580035237283
C           63.50041386707224       53.90739770421223       58.87193289908895
C           64.66810504431525       52.04133290393155       60.12594806404562
C           65.88139881761356       52.03874119871684       59.18004414922248
C           66.49085012808703       50.63622276124146       59.21270146755871
C           66.92182835741562       53.09049885032324       59.58244306882290
C           68.10172191962909       53.25034314582276       58.60839785798402
C           69.24004652747037       53.97798299699768       59.32581643657478
C           67.69340184345036       54.00090967328535       57.32749684246402
C           68.24978880835656       53.41470409185460       56.02091229139346
C           69.77660100959515       53.38790697658983       56.00966731486176
C           67.72998054058493       54.24798321133035       54.83997922314329
C           67.84467081126240       53.58337192457418       53.46080735388887
C           67.72521365868860       54.64455154709449       52.36715308924886
C           66.77801444054991       52.49487939277073       53.29501149889401
C           66.84688625811492       51.77563891030814       51.94971741738867
C           65.98187034450885       50.52312965933282       51.91711889629699
H           37.72942987566751       57.22689259281947       52.95609745521324
H           37.74624890205010       55.87215859676807       51.83196594420374
H           37.03924900509802       57.41176996991263       51.34125230082000
H           66.03592978248196       50.05727979405576       50.93665143752710
H           66.32768430546435       49.79937376631090       52.65240953336556
H           64.94306677405372       50.76438899565051       52.13250976535586
H           66.90380550270412       51.75755307706368       54.08988420297101
H           65.78744559542712       52.93893621014750       53.41790067882756
H           66.68055351917425       54.49815649346236       55.00863124682910
H           68.28917084681913       55.18661683890361       54.82602120721596
H           67.88213260098213       52.38739266336461       55.92797582591968
H           70.17298293528472       54.39040391512461       56.16039237718306
H           70.16491429575854       52.73661879213329       56.78799250113274
H           70.14554618090143       53.01979397078129       55.05547277539858
H           66.60441997384288       54.00296460370379       57.24711893186936
H           68.01018663462402       55.04297806359364       57.40554867407386
H           66.43630743373375       54.06214308154141       59.68667223259312
H           67.31522150673608       52.81564780683137       60.56366386656544
H           68.83052848071675       53.11638906138210       53.36783205563518
H           66.71385747011530       55.04481502164506       52.33744350948356
H           68.41306660801389       55.46663783981328       52.55436743464490