3795
 energy: -5103.685740724863 gnorm: 0.000886602867 xtb: 6.6.1 (8d0f1dd)
C          110.95278352176804      131.13370071316629      114.48740146023235
C          110.11890298751537      131.44036459342041      113.26727791462240
C          110.09200536019218      131.29892646751100      115.74469685919183
C          109.78078403895731      132.75397890585003      116.08202336355738
H          109.16038431457751      130.75462176697130      115.59743068615143
H          110.61344028079745      130.83744784334326      116.58324008980003
C          109.25198878349754      132.87789859535383      117.51042185073368
H          110.68816537860484      133.35400483397609      115.98530421347317
H          109.04034516246772      133.14972166628303      115.38402570506767
C          107.90097426258785      132.21401767481018      117.70766470927776
H          109.96678254932989      132.44993844555819      118.21445392054875
H          109.11793263765318      133.93494632006272      117.75433558579840
N          107.75893563022539      131.60264594953753      118.88911214590638
O          110.32947466277624      132.63180983446622      112.76564747252787
O          109.31597070427918      130.65187691201677      112.80477725453768
H          109.67949272011543      132.87619004759495      112.00973619005285
H          111.81746613948674      131.79723845707360      114.51924376519082
H          111.28064603024397      130.09377239887434      114.43122684836730
C          106.48647769070743      131.09435776648652      119.37351728717091
H          108.55833804772298      131.51858924058476      119.50118294252631
C          106.64746770912366      130.39517505008465      120.71690293340059
H          105.79273271201646      131.93831157619243      119.46565143486742
H          106.06956281101826      130.40725458672716      118.63192142546829
C          107.31638923372228      129.02691721238060      120.59425433536545
H          107.23562281972382      131.03205228466737      121.38015873271672
H          105.65960611360971      130.27310475328937      121.16291328522016
C          107.59536506657594      128.41814977968696      121.96785586543618
H          106.66614481824304      128.36029644806931      120.02522497770012
H          108.25677372302981      129.12776460229986      120.04929233399670
C          108.10002704110981      126.97969193140140      121.86665527863563
H          108.34457708669164      129.02800960753228      122.47604360516695
H          106.68574115170811      128.44034102017093      122.57024530370072
C          108.67228196781855      126.48630993124061      123.19378546703916
H          107.28859841918752      126.32303177532799      121.55054057333312
H          108.88636201265663      126.92234821610182      121.11051771913280
N          109.37323540452525      125.23227884943591      123.02142186824616
H          109.37238680731402      127.23382393764975      123.58612561256800
H          107.88573636168778      126.33232076925079      123.93648505457428
C          109.30662024086978      124.19196567954455      123.85662759689663
H          109.91883091082150      125.12565289326169      122.16967075434579
O          106.99606612856616      132.26587301867264      116.87549019797180
C          110.14127856845313      123.01071680413814      123.40372092818895
C          110.62109250543104      122.13003881846456      124.55530939448843
H          109.54295663435877      122.42028362805749      122.70537216423327
H          110.99841612176158      123.39586045805316      122.85288189893849
C          111.88827019650226      121.35903680323385      124.20085772358932
H          110.83293262892887      122.75839757847869      125.42258101099920
H          109.83583685280612      121.42601806514506      124.83316151190229
C          111.70537267629530      120.46945502887506      122.97035365731234
H          112.70157150613213      122.06387768563272      124.01854511766359
H          112.17241628580706      120.73002766123835      125.04575496231962
C          113.03096101354417      119.84897445067406      122.59551873390795
H          110.97684368978338      119.68847388834428      123.19066677064762
H          111.34048913318414      121.04979542293013      122.12368736825799
N          113.36205797660405      118.77716283742750      123.30840947896233
C          114.61069115333687      118.06654971830888      123.16867504208318
H          112.77249346234220      118.53087727882934      124.10452856254634
O          108.63307515712916      124.19407264143312      124.88847008412876
C          115.36378812563318      117.98715523525479      124.49303289648388
H          114.40330836472221      117.05514994302538      122.80488285892801
H          115.20483711691701      118.58636887372802      122.41428623599107
C          116.56580215985858      117.05475063831612      124.37962706743063
H          115.68151003471287      118.98644222754237      124.79659301270377
H          114.68239632282879      117.62113652185802      125.26460856102486
C          117.33663773167480      116.96368075501400      125.69180928091367
H          116.22014579492679      116.05888951440672      124.09522685666293
H          117.22846987506307      117.41331104716193      123.58993146436804
C          118.50761968070205      115.99128890979885      125.59227043592379
H          117.70173721849199      117.95578695831030      125.96455938497856
H          116.65797773964039      116.63407877070978      126.48159600578381
C          119.24610205681071      115.87750877218024      126.92271705379771
N          120.24147909693956      114.83089489792242      126.88698784007285
H          119.75696133710315      116.81217067042492      127.16672608120074
H          118.52442019104930      115.65286892337426      127.71734894986959
C          121.51756490271167      115.01895431835339      127.22950388352093
H          119.90011613839059      113.91893191918226      126.58906193355239
O          113.73881468500876      120.30620221169180      121.69460279320914
C          122.41308517366031      113.80664130789039      127.12290166924744
C          122.98106529820963      113.65611794662705      125.70582578309966
H          123.25052547626210      113.95919820975514      127.80546338786908
H          121.87217581030330      112.91355165870219      127.43182713117510
C          122.03330076953067      112.99596258365911      124.71018061514275
H          123.24731348547319      114.65009520540458      125.33857426031479
H          123.90332998005084      113.07954362576778      125.77515559991514
C          121.87708678571865      111.49811078862021      124.96054440556100
H          121.05245980805057      113.47008170701129      124.75895471883653
H          122.42524038711059      113.15044609423731      123.70358604249482
C          121.07550068074957      110.81680375241869      123.87029515220630
H          122.86488745129486      111.03315451829057      124.98762031976617
H          121.39308547897842      111.32940503419893      125.92115200829863
N          120.30623053667233      109.81547782069229      124.30370530090747
C          119.34717023745725      109.09465630522945      123.49409543005491
H          120.27466415376254      109.61982418569919      125.29263027602964
H          118.13714589482282      115.00298154403825      125.31567344365632
H          119.20032271462705      116.32127744823460      124.81541600879918
O          121.94903039440509      116.10928498414020      127.60889156243111
O          121.15411038287998      111.12256709953117      122.68224710855256
C          118.03333444536302      108.96193311666784      124.25723783996037
H          119.20848998819955      109.65962670624906      122.57122288248289
H          119.74085542403139      108.10186480106344      123.24978497500753
C          116.97324181008099      108.22362068158009      123.44388588404362
H          118.23320231317213      108.41641926030729      125.18110403696846
H          117.67245944265886      109.95911229472728      124.51761832613137
C          115.61582308253162      108.17240134934924      124.14962773829642
H          116.83840825857055      108.73098990876014      122.48704359195786
H          117.32697858913141      107.21363178161621      123.23464420510220
C          115.64717631152180      107.52228837330968      125.53399891134917
H          115.24282401049062      109.19239776108815      124.25969540420587
H          114.90603739225807      107.63502925933369      123.51749159171506
C          115.94516764674967      106.02213598317121      125.48494304364165
H          116.40423781291413      108.00411291773051      126.15237139876081
H          114.68407594386800      107.67899144356566      126.01875883747478
N          116.52549515367204      105.56568311293429      126.72659940395430
H          115.03514278395404      105.44568168316587      125.30946775085584
H          116.66160691869781      105.80308509916719      124.68831997224569
C          116.07555275464217      104.54753944179370      127.45603946998341
H          117.40565663625472      106.00236982054122      126.97822959872735
C          116.99435096515522      104.15808701164727      128.59968772411008
C          117.87296423745290      102.99404506074896      128.12623817076181
H          117.61586272016318      105.00685253639202      128.88588186862015
H          116.39536441735312      103.84348503225308      129.45672011287220
C          118.91001995136652      102.59350016939713      129.17125136304810
H          117.22716603843483      102.14166530346510      127.91840996024389
H          118.36576365099167      103.27468428375074      127.19454104439073
C          119.51918378501568      101.21598636263712      128.88507156250159
H          119.70460661911400      103.34035724747766      129.21295854822733
H          118.43741332179664      102.55557939185748      130.15589192039388
C          120.35666817020882      101.19664372391499      127.61987707996863
H          120.17460646467374      100.94152674710793      129.71417362137288
H          118.72303567218781      100.47649591098741      128.80421069149011
N          119.73187772905645      100.79829590954044      126.51497299784192
C          120.43189666289949      100.68140889307489      125.25064764512449
H          118.71563081205301      100.65979251887624      126.49965509793827
O          115.02330638999292      103.94862589485730      127.22537101537712
C          119.66832822395409       99.76674569844606      124.30137630993256
H          120.54655799011142      101.67515021044036      124.80441926661270
H          121.43193464077078      100.28974933029913      125.46164397527184
C          120.46450989347359       99.40593378018436      123.04399064125595
H          119.40418371051231       98.84923155132638      124.82885784343796
H          118.74871641712899      100.27711813822560      124.01919966002751
C          121.39119117876996       98.21090867843489      123.26367930410449
H          119.76010317200259       99.16435812537880      122.24937555804348
H          121.05871018529629      100.26384296004295      122.72695972765382
C          122.25050780674994       97.88156350976261      122.04218327903988
H          122.05305140006746       98.41399128788919      124.10721713513466
H          120.79172296945940       97.33453373095894      123.51932381211269
C          121.41187044906121       97.53379234926126      120.81346741031092
H          122.90007696013420       98.72477821228556      121.80289561637039
H          122.89010337470198       97.02875583609878      122.27833334893849
N          122.23335599421011       96.99373931666432      119.75245475715056
H          120.66653491321875       96.77303287761573      121.06043589381127
H          120.89876823406439       98.42705019140131      120.44354917170821
O          121.55627549582751      101.48983865724399      127.63349603174954
C          121.91116506224256       95.89702422871169      119.06163518053187
H          123.11249365994016       97.47666150772655      119.56951068862912
C          122.93790434381235       95.47782829660278      118.02183377706660
C          122.34121563787087       95.58295765131778      116.61552395169106
H          123.82558634668584       96.10430965631468      118.10588634539016
H          123.21342611463493       94.44038664374433      118.21976090271147
C          121.96674932717805       97.02454360431716      116.28802449903138
H          123.06201100705916       95.20896006079315      115.88619456951658
H          121.44797924851872       94.95562264072235      116.56591527306816
C          121.37299432943840       97.17376623110000      114.88319532630707
H          121.23271235034697       97.36700103508039      117.02127391065459
H          122.84951855785107       97.66191380727906      116.37745468611746
C          120.94812724373898       98.61872117298321      114.71494064115363
H          122.12516432243766       96.91906741229876      114.13584419963811
H          120.51421941064365       96.51105660655664      114.77438241585502
N          119.70619189413408       98.87964848010471      115.11791370181845
O          120.85747578309736       95.28249946443543      119.22601634212225
C          119.17222422637438      100.22383375355903      115.19591928752389
H          119.12565023144741       98.12412499810638      115.47694816616757
C          117.65244648790915      100.22930988392292      115.08205226581833
H          119.47323268817196      100.67171238685285      116.15059844483018
H          119.62568826467994      100.80651188646124      114.39268414335947
C          117.06672403945311      101.62676646956307      115.32423757414578
H          117.36418600889044       99.87500411861431      114.09412348377366
H          117.25041747145427       99.52190604558274      115.80926025076185
C          116.64855271887708      102.34411083825050      114.04193030846653
H          116.18473349370844      101.54901915298804      115.95961735834794
H          117.80055278546371      102.23511569585749      115.85162368060237
C          116.35342707477798      103.82466874934954      114.30380945620382
H          117.43200211989361      102.26220627423216      113.28741028614994
H          115.75784189780552      101.85605581057195      113.64226731990182
C          115.38619417377029      104.40837812390632      113.27235711798697
H          115.90283290280604      103.94402881111107      115.29150761517842
H          117.28223946232957      104.39394424554904      114.28350010360086
N          114.03412874859983      103.97161153963256      113.54900160576162
H          115.38164837802042      105.49951240327043      113.32027470851590
H          115.68283989082700      104.09527634418396      112.26745062901166
C          113.05465774931260      104.78004882250924      113.95762289306843
H          113.86797186634682      102.97325649365042      113.60062495587836
O          121.70987014835859       99.48486896013691      114.28408392123875
C          111.81936266965002      104.05445527640121      114.45187879683843
C          112.05225244446626      103.48965697681517      115.85858512600778
H          110.97464659388460      104.74600742036972      114.45234325608253
H          111.59837125749679      103.22618123602008      113.77803384936482
C          112.33727744220907      104.58019787003843      116.88853622223721
H          111.16347468672575      102.92743564868260      116.15682529072632
H          112.88297382986448      102.78214086317186      115.82327168077100
C          112.32305873577128      104.04241268086123      118.32383862678527
H          113.30156990615117      105.04834449647176      116.68609456504566
H          111.57666954333332      105.35858207456519      116.80057326022136
C          113.41714413497041      103.02803114314698      118.57496401873018
H          112.46130683847765      104.87663009968688      119.01464448509211
H          111.36085509058547      103.57033418883351      118.53174560875320
N          114.65317193355385      103.49414997309636      118.51170002106880
C          115.81631494278697      102.66800987920539      118.77384603228785
H          114.81090405200491      104.48090907998126      118.30713515469799
O          113.13961398814257      106.00723700263549      113.94208471473665
C          117.08834737857390      103.47188297332529      118.54422646875649
H          115.75878962462878      102.30191424631950      119.80330985858164
H          115.78358806437807      101.79264898164718      118.11666394447253
C          118.35267534196373      102.63865023507508      118.75558303724333
H          117.07137196914870      103.85011832312605      117.52156308191454
H          117.08980047370724      104.33315743068296      119.21055981235990
C          118.65819201434719      102.31724558860515      120.21790340178556
H          118.25035760995239      101.70240552248870      118.20416151638403
H          119.20367115422017      103.18242346621291      118.34410820613522
C          119.08417336543388      103.54045961343198      121.02683291847998
H          117.79045401515782      101.85376351419741      120.68808398234711
H          119.47370413497060      101.59106201682982      120.24395629451720
C          119.46016477987710      103.12761534835028      122.44507131427814
H          119.95336349301861      104.00763884299268      120.56196203195150
H          118.28080702930887      104.27435087922116      121.06596407568597
N          120.10718261464866      104.20125627128169      123.16733858188013
H          118.58066699541517      102.82969319855999      123.01958198584852
H          120.14500597109421      102.27233949231642      122.39696743548809
C          119.85555371135895      104.46177629450681      124.45544266417279
H          120.83644839908669      104.68902586622303      122.65620371867423
O          113.18273232507190      101.83773419127783      118.84344479447945
C          120.75987815124665      105.49439322527233      125.10528322452937
C          121.85949633768371      104.76278200402841      125.89181821745510
H          121.20407306613416      106.15093639504219      124.35783575659472
H          120.15037730011467      106.07895301244747      125.79751201391031
C          122.98330690764894      104.25181703680624      124.98931896738794
H          122.28722997949630      105.43461902811798      126.64036679256431
H          121.40806837968839      103.92371747909903      126.42685784058027
C          123.86969011949813      103.20995052540977      125.68273740106413
H          122.55919724503877      103.79681666482878      124.09295334521964
H          123.60444486447000      105.09354965932754      124.67908107218506
C          124.43392126791842      103.75063503715317      126.98558258686799
H          123.28455236586633      102.31578566992704      125.89383071105179
H          124.70127377112189      102.94760350556987      125.02605605687931
N          123.77554830119072      103.32735334191392      128.06487724591068
O          118.97928244405324      103.88330459391732      125.09144007851577
C          124.06099333317678      103.71951020968510      129.42801538199086
H          123.01609314095938      102.66426328968159      127.94840492617506
C          122.79347019456075      103.59412229692904      130.26755140426573
H          124.83982926687864      103.06958235068279      129.84716944748857
H          124.44617647687944      104.74261753436294      129.42404595179690
C          122.99823472069042      104.02520350962725      131.71894802370721
H          122.00433847707906      104.19988787408413      129.81779365575235
H          122.47018185491486      102.55173299103319      130.23467553905067
C          123.07614609912947      105.54374721155200      131.85415615491814
H          122.16446021735401      103.65707838281170      132.32070514953213
H          123.91207024734445      103.57200573387900      132.10752160959166
C          123.26974011205971      105.98963006631739      133.30183474983616
H          123.89808209749768      105.91711873992836      131.24561029866905
H          122.14627947206274      105.97268581201568      131.47581675717569
C          123.21074351151513      107.50913954871699      133.44277188974883
H          122.48382521132899      105.55927371201200      133.92527483321285
H          124.22933002894963      105.63031976225682      133.67800922687849
N          124.35013530464316      108.16037738170769      132.83411256919203
H          122.29023598477018      107.88651496926299      132.98101282606592
H          123.20764537571800      107.80330597566801      134.49588663292258
C          125.05896758875728      109.11699904427979      133.44993504495008
H          124.68722569870179      107.78282312852443      131.95587746472486
O          125.39613792563374      104.51851511103020      127.02573676882939
C          126.25259902185553      109.59464587713104      132.64845991294396
C          127.36241886729545      108.53764117325871      132.60987510323628
H          125.91531683740722      109.80433279254044      131.63468342916062
H          126.63296390571917      110.51676416410933      133.08747372398525
C          128.28596335485102      108.72582556118063      131.40696886790917
H          127.94565360260761      108.59907655751884      133.53075099420633
H          126.92087142804783      107.53956467632874      132.57244120818532
C          127.61201043126526      108.39693004981343      130.06836650339727
H          128.63170890442061      109.75961481136024      131.37442778580657
H          129.15647511527720      108.07743479891434      131.51890905166218
C          127.02191947851323      107.00242910173895      130.10317143548988
H          126.81949152716028      109.11316656184590      129.85254821511293
H          128.36234853816049      108.45509087766625      129.28068884690410
N          127.90683088301827      106.03010519439118      129.88611970818226
C          127.55862321594354      104.62285166958442      129.93453045070592
H          128.87743712804789      106.28913084657272      129.75257640589393
O          124.75900447986069      109.57803218494639      134.54759372987894
C          128.78700440733147      103.72752705144416      129.83030481631434
H          127.02071702318059      104.42887822967670      130.86996034497926
H          126.87533266571323      104.40807484658187      129.10423016589257
C          129.77557902165245      103.91494759991011      130.98148454317976
H          128.45157851918779      102.68961848120568      129.80113011940009
H          129.28655109147252      103.93316987465029      128.88374526799137
C          131.12667965628506      103.24941322668195      130.69784500714800
H          129.92830973994737      104.98031451611647      131.15547432403406
H          129.34762169318373      103.49196419396343      131.89227176221678
C          131.98411343726812      104.03256211322470      129.69936751729449
H          131.68356186798789      103.14755815765591      131.63104293910806
H          130.95007597109353      102.24566748524398      130.30667253301297
C          132.58853455725878      105.30481331922665      130.31636149984226
H          132.78564811677569      103.39522321418404      129.32430757721968
H          131.37244664770583      104.32606134171500      128.84527883667681
N          132.71626364127050      106.38151950282104      129.35645756894567
H          131.93542670502535      105.66862586951279      131.11399711468243
H          133.57279963811067      105.09969526763150      130.73791952825908
C          131.69829718655842      107.21288893027996      129.09782223129196
H          133.55555384444301      106.42808291332000      128.78939482492834
O          125.83006109928196      106.79297956511211      130.33412574149813
C          131.99882187443040      108.28990973880921      128.07985449608839
C          132.35915704333487      109.61849976011723      128.75861313523180
H          132.83449972223571      107.96655604081255      127.46429753303370
H          131.11803095201077      108.42549018931702      127.44948995859163
C          131.13813535458794      110.30712739370315      129.35793254938753
H          133.10606536872666      109.43839786637808      129.53533610873578
H          132.80856516808336      110.27061435770759      128.00804791693039
C          131.46303314562903      111.67549074259462      129.95317757702924
H          130.38544382338117      110.42883280464461      128.57844958723280
H          130.70391606846118      109.67206384404841      130.12997483268649
C          130.22811652363458      112.37074705360563      130.49232789865653
H          132.16971394917724      111.56844451684545      130.77929099938675
H          131.92613622786055      112.32706822315912      129.21103203241196
N          130.41257254048983      113.64277369520829      130.86053186159521
O          130.61258887312962      107.11927604739243      129.66855071556495
C          129.36514824728178      114.43347939933324      131.47033987930953
H          131.26601822827377      114.12544911398108      130.59973062863892
C          129.90254449443285      115.25607295477289      132.63914625776451
H          128.90695104277833      115.08721140921318      130.72037731980109
H          128.60437781780482      113.73268743413519      131.82425035160958
C          128.78190690517977      115.82994443454497      133.50720809834243
H          130.52528739242217      114.60486077580185      133.25567335928434
H          130.53187522673412      116.06175962208826      132.25754414503555
C          127.98224750530478      116.94038771862250      132.82739090176284
H          128.10431314614209      115.02126686804083      133.79002813471385
H          129.21893999611453      116.22762540168294      134.42537837871279
C          126.78987506942431      117.36798864303765      133.67921429179196
H          128.63207718852019      117.80030894400957      132.65076575115813
H          127.61292489003714      116.60220481968203      131.85878096042015
C          126.03866230485686      118.54874310329571      133.06764628829910
H          126.09529213127318      116.53252777381383      133.77972343995643
H          127.13166231588787      117.63764971861387      134.68185551202919
N          124.76036132986036      118.73564338521510      133.74650087168322
H          126.68182213942657      119.44501118820065      133.10930929242866
H          125.82956637620897      118.34799554703336      132.01331658760279
H          124.28321998608678      119.54216252523192      133.35899618361324
H          124.92449406029884      118.92419367849270      134.73015602087619
O          129.13855960080582      111.80791646409268      130.59786212358807
C          114.61186074981866      129.53521295914905      111.00719372652213
C          114.66266678109024      130.32616706700614      112.29222760440155
C          113.19348865284782      129.50549760642053      110.42337068870619
C          112.12536839444644      129.12505393372217      111.44853355920894
H          112.95160835656878      130.49368130470214      110.02820571984974
H          113.18081577922176      128.78623122072699      109.60435079086710
C          112.41412713978291      127.80306070185738      112.16210056335647
H          112.04380510140710      129.91957635080593      112.19529615002685
H          111.15911330568876      129.04760366198650      110.94610787973562
C          111.27173652151257      127.45856164089108      113.09219349412798
H          112.55108324921753      127.00924943070947      111.42949443105904
H          113.32107070928636      127.89479262919340      112.75790214325937
N          110.22053989433721      126.90221889814181      112.49248802678598
O          114.41826148263125      131.61891158608285      112.12117543281032
O          114.90717617771301      129.84771316776448      113.37695070428988
H          114.40491138186985      132.09682063975740      113.00143305993652
H          114.95326450211689      128.51970355490013      111.20590823639148
H          115.28231920170823      130.00334526863389      110.28550489003536
C          108.99047092983308      126.54596258093795      113.16738412804654
H          110.32499930520081      126.58891471682593      111.53417060908123
C          107.83855971058497      126.50276302299326      112.16881799397619
H          109.10101224452669      125.56744761834747      113.65101040427653
H          108.81205477636611      127.28925717751828      113.94829041742128
C          106.56435491221879      125.91559701978557      112.77671132107298
H          107.64189869248804      127.51429607377538      111.81248568820197
H          108.15858221943523      125.89860138448769      111.31884043173608
C          105.32898143037055      126.07821219485270      111.88488184681846
H          106.71818820125165      124.85878088553163      112.99433966433389
H          106.36243524114853      126.42010486073652      113.72428306651427
C          105.53608504711953      125.61193863041483      110.44308166916278
H          104.50591955882879      125.51429690121185      112.33020102677611
H          105.03937052049631      127.12987145550433      111.88269931509907
C          104.28336624966207      125.77161985975573      109.58659806899476
H          106.33442306082094      126.19785463452513      109.98625202546731
H          105.82209259860599      124.55951204488231      110.42837862443949
N          103.84394857935445      127.15116161813104      109.58135375661026
H          104.49145198622223      125.42994279265763      108.56536587549705
H          103.46369411703162      125.16073242675628      109.97804490233888