3795
 energy: -5103.079707015691 gnorm: 0.000908393283 xtb: 6.6.1 (8d0f1dd)
C          111.00075516316751      130.93448769920732      114.43118838057465
C          110.17208709222923      131.21215629605973      113.20401730410192
C          110.13343290937800      131.17271545464439      115.67266563569824
C          109.81862129773465      132.64478193946314      115.92228634388796
H          109.20228504355870      130.62411353293578      115.54961246555693
H          110.64643022728968      130.76145301685580      116.54096269669816
C          109.32013912070703      132.84751805526520      117.35265124480729
H          110.71727927171209      133.24690415244658      115.77142944801039
H          109.05932489480941      132.99263144391102      115.21988885248034
C          108.00602916637511      132.14213491762780      117.62912751130267
H          110.06868575244424      132.50050774042339      118.06546966540547
H          109.14297552112491      133.91232201727004      117.52677128296961
N          107.96304063621520      131.50195107515071      118.80778104166342
O          110.40279866145531      132.38935547307730      112.67064074888427
O          109.35266168846982      130.42899691197721      112.76674310878224
H          109.74753381684113      132.62847926556918      111.94109782545904
H          111.87340730032746      131.58789739464439      114.43879561562991
H          111.30690485837667      129.88725547634712      114.42339968222038
C          106.72054123314632      131.00669336375293      119.36963161353597
H          108.81118358253318      131.38706641463099      119.34715346046882
C          106.94399108172567      130.33897863320820      120.72016074433607
H          106.03312059869702      131.85511034093753      119.47695860560464
H          106.25689652556119      130.30180555405522      118.67203669954559
C          107.54595364091453      128.94155916652414      120.59072956718389
H          107.60285747190272      130.96657424018926      121.32357195319365
H          105.98517430781948      130.27031849183490      121.23799570942825
C          107.84341312013102      128.32819447932516      121.95788044897071
H          106.84667819066470      128.30012523425069      120.04934013242800
H          108.46968196887745      128.99879255730821      120.01322715242104
C          108.27121760392532      126.86610245620534      121.85019922173525
H          108.63874951929209      128.90399639067397      122.43549522513398
H          106.95781006728095      128.40044639691806      122.59301503367330
C          108.86361546677058      126.34584633419063      123.15848650243993
H          107.41663470969115      126.25079394169694      121.56398745026142
H          109.02712857179593      126.76483457782832      121.06804165701533
N          109.51289439779978      125.07151859043402      122.95930279852720
H          109.59801804799451      127.07029920782269      123.53429676161311
H          108.09350801281646      126.21539666336665      123.92320284776197
C          109.40079199616461      124.02211612179440      123.78433965243408
H          110.03701094162244      124.95128012241963      122.09438906288598
O          107.04528521012696      132.18163908760906      116.86841553697901
C          110.17775416023269      122.81218429956060      123.31232509479840
C          110.66800611442213      121.92554761085778      124.45700444927772
H          109.54257062441449      122.23215538337425      122.63872874898379
H          111.02871534126302      123.16955088035012      122.73446724399444
C          111.94623990816318      121.17624140292145      124.09422396814483
H          110.87348324546225      122.54776209060431      125.32989344074778
H          109.89230498245593      121.20952307466223      124.72773059918239
C          111.79456373843126      120.35416366311837      122.81156028257952
H          112.76180568501233      121.89146925764206      123.96867720214259
H          112.21193421868008      120.50675384483195      124.91305100990311
C          113.12259205031536      119.72860328192930      122.46370048629439
H          111.04002442397965      119.58208857345555      122.96058144751503
H          111.47928835879779      120.98640820615132      121.98311683870317
N          113.42274921025837      118.63958016496477      123.16950961158770
C          114.68395916859863      117.94953421621021      123.06764397398723
H          112.83351066177538      118.40497135095558      123.97174848232223
O          108.73481280355348      124.04963590307382      124.81600740597429
C          115.40822637091581      117.91098076212096      124.41046217427105
H          114.50529868107773      116.92544829811277      122.72024681854886
H          115.28671168884412      118.46167458842744      122.31471513821192
C          116.61877834327815      116.98709704218155      124.34417479621803
H          115.71222940298563      118.91869076551868      124.69721388819841
H          114.71470650821158      117.55523049416956      125.17535542313642
C          117.35565508117899      116.91842314326098      125.67635023950659
H          116.28985680397689      115.98286335842241      124.06384647526019
H          117.30182108996075      117.33618513845403      123.56738015141590
C          118.53002700058745      115.94829142538930      125.61340908601957
H          117.71186159190803      117.91471192067257      125.94392867750514
H          116.66056635305941      116.59505489515566      126.45440798328468
C          119.23616754955751      115.83642864757063      126.96063879444536
N          120.23038036535350      114.78915501028709      126.94303661592684
H          119.74737228875307      116.76881061200608      127.21231065671961
H          118.49697387324548      115.61654264738401      127.74048154647711
C          121.50316611704284      114.98986406392326      127.29770369823980
H          119.90204369552009      113.87812153221482      126.63258551628627
O          113.86294985745567      120.18929252151850      121.59459668223475
C          122.41539769624571      113.79323726283594      127.16996049560083
C          122.96608454662149      113.67270095243926      125.74311117967501
H          123.26070937012311      113.95151052527793      127.84032915077927
H          121.89246852105779      112.88767084694632      127.47445016179893
C          122.01742130785946      113.01685506685611      124.74534279721242
H          123.21000042752451      114.67571197859621      125.38748641503850
H          123.89688197934004      113.10818594936332      125.78971250840296
C          121.87393688818823      111.51518501348416      124.98454146314049
H          121.03123639757580      113.47882557249241      124.79995947563238
H          122.40481951395942      113.17989037829035      123.73809981417344
C          121.06672640972360      110.83743663399028      123.89957475189036
H          122.86556741625463      111.05680641821290      124.99480377023787
H          121.40218604890435      111.33380320115808      125.94875414025057
N          120.23889541850004      109.88748748985762      124.34636992157718
C          119.28151591289956      109.17653856633251      123.52824019801533
H          120.16382045719499      109.73258269623335      125.33995420722663
H          118.16859152597310      114.95834883126551      125.32853560192005
H          119.24286483826459      116.27684950392253      124.85425738996541
O          121.91247735113249      116.07724697590568      127.69613418592189
O          121.18260336511094      111.10141705114019      122.70489105633369
C          117.96917344254160      109.02563908271715      124.28798192155354
H          119.13882656084866      109.75373299352346      122.61246545517514
H          119.67824744521600      108.18872086352724      123.26135046048884
C          116.90452235104169      108.32668199921001      123.44660648014680
H          118.16562366602018      108.44512625730671      125.19086469706517
H          117.61638998341782      110.01665423532609      124.58148318781674
C          115.54545215405359      108.25620994494894      124.14768915505334
H          116.77603496910747      108.87068096461320      122.50776498781882
H          117.25256295232921      107.32314370112366      123.19476818314257
C          115.57896657281506      107.59065068293336      125.52381311234745
H          115.16480282898102      109.27300451633286      124.26688297816206
H          114.84318284358105      107.72192763477831      123.50453608723561
C          115.91592259215997      106.09857189865609      125.46568507071375
H          116.31472616371991      108.08780135768593      126.15609986281792
H          114.60549039906309      107.71795261219062      125.99589425579232
N          116.48582819356758      105.64858697603701      126.71264252624943
H          115.02136697713480      105.50328136745505      125.27422355730289
H          116.64554858662983      105.90351600669952      124.67417735541913
C          116.03321782071176      104.61197350257996      127.42104727731341
H          117.36156916704228      106.08997166518189      126.97412269736844
C          116.92876686303957      104.23438346259645      128.58630818293446
C          117.85679754430478      103.10347969178697      128.12637863914176
H          117.51585180442611      105.09734105949391      128.90307757757043
H          116.31372981945171      103.89124083986384      129.42056707379936
C          118.89930603042490      102.75373142081290      129.18499167172459
H          117.24653895634349      102.22518672384305      127.91969497211939
H          118.34573900852237      103.39696766272688      127.19665069226664
C          119.54022334751504      101.38218851871673      128.94262348664108
H          119.67692488648895      103.51921136147666      129.20889623115750
H          118.42434850986277      102.73289393610645      130.16947511333777
C          120.37030153563227      101.33730499054614      127.67457783949496
H          120.20622334028855      101.15125367284054      129.77638976482021
H          118.76095994207193      100.62101020290264      128.89202396778714
N          119.72633949888498      100.94909224282772      126.57254854149618
C          120.42032518765622      100.81635183523196      125.30944031443795
H          118.71063623145645      100.83728220670076      126.55987446484598
O          115.00268773934314      104.00156074032175      127.15445284175749
C          119.68039952831278       99.84775971189597      124.39609178783917
H          120.49940337380943      101.79559046692764      124.82519104743189
H          121.43218744041329      100.46061947853066      125.52601921245626
C          120.46648866947490       99.49345004462057      123.13168559527763
H          119.46165537158315       98.93158292841412      124.94808627851447
H          118.73416048800921      100.31139786327830      124.11747430963631
C          121.45632739906574       98.35050824273750      123.35237254293936
H          119.75665676782087       99.20200028157801      122.35752990405696
H          121.00670189642742      100.37401280354058      122.77861455101464
C          122.29017161567151       98.03140997038989      122.11086465428043
H          122.13026074909455       98.60657738435073      124.17155763027411
H          120.90308419731254       97.45580822069657      123.64641524566258
C          121.42159615577357       97.67866357036300      120.90557687364807
H          122.92597372855222       98.88143436792049      121.85796284418350
H          122.94224393459307       97.18414711519580      122.32955319537031
N          122.20379109412552       97.09474766256636      119.84232516015145
H          120.66192885620946       96.94328243114118      121.18579175436710
H          120.91639636913513       98.57841542391974      120.53347247512301
O          121.57040094425079      101.60108528974280      127.67366408695018
C          121.75389184110350       96.07519094023276      119.09958751978253
H          123.10084418704207       97.53536552770835      119.64195713288956
C          122.73595068362791       95.57756572494421      118.05189769362104
C          122.14605448190682       95.73276005143263      116.64836862269152
H          123.67395555829268       96.12624938270301      118.13300359627161
H          122.92450594393360       94.52011919153540      118.24639777844013
C          121.89145921704022       97.20010932428585      116.31730798980705
H          122.82995179130465       95.30017433143891      115.91534247916320
H          121.20269633061912       95.18408941946100      116.60139134040283
C          121.31119626926098       97.38546404153830      114.91053262700021
H          121.18660547572260       97.60464236001154      117.04730188707742
H          122.81990049742632       97.76878274029139      116.40427762030129
C          120.88168593907967       98.82969212132656      114.75637570997561
H          122.06925686033870       97.14596884398982      114.16363534979840
H          120.45245602056605       96.72635488582587      114.77755160131248
N          119.62504619770907       99.07571175848157      115.13098357209613
O          120.63992313055392       95.58650608296995      119.24238188399984
C          119.08613636153150      100.41760024443430      115.16892774403732
H          119.03656019243090       98.32214379325855      115.48737561160219
C          117.56410565848118      100.40973185954795      115.19693866830623
H          119.47165167286767      100.93777525181362      116.05628394477598
H          119.45390931286379      100.95225184790444      114.29029127629720
C          116.98967214975538      101.82339215260950      115.32952805052123
H          117.18892698842301       99.94222759494708      114.28753063030040
H          117.23626515385430       99.79691371938098      116.03871466216174
C          116.64069365146588      102.47579489287482      113.99378654677331
H          116.07773171914540      101.79065852804661      115.92591402100670
H          117.70843426046640      102.44849207275166      115.86170807412965
C          116.32911783733552      103.96662726868962      114.16910916069236
H          117.46136942125995      102.35821760937752      113.28405683293748
H          115.77122864517362      101.96652944124182      113.57648026661170
C          115.32970602616957      104.46866053062395      113.12330341910396
H          115.89885153445879      104.14035933210405      115.15827881701632
H          117.24930169751173      104.54839426677290      114.09873446446656
N          113.99613821137291      104.00840472269462      113.43256784179853
H          115.29936749801230      105.56115281176909      113.11971109868496
H          115.63065173935338      104.11117031684948      112.13511126534777
C          113.03975413459136      104.80119643930531      113.93177406191633
H          113.84431898624429      103.00577534020749      113.45936249410043
O          121.63663811938930       99.70928408991882      114.35010279800389
C          111.82482959698872      104.05787447697580      114.44203114561164
C          112.09848701548904      103.46326146206758      115.83044647384114
H          110.97904269921460      104.74637992508569      114.48172831934728
H          111.59311299959144      103.24412622929300      113.75481959978066
C          112.34106011672502      104.54063064993920      116.88626490822907
H          111.24112903677791      102.85223812775639      116.12116344260880
H          112.96404886235904      102.79995462066522      115.77043099702688
C          112.31350006489757      103.97512182309012      118.31174109575761
H          113.29492979502585      105.03902712349492      116.70584766131208
H          111.56129659965862      105.29874354948511      116.80475185439474
C          113.43939543585783      103.01026948154914      118.59525351775417
H          112.39264453018271      104.80210202142926      119.02123300031764
H          111.36905886847896      103.45596511541063      118.48150535042210
N          114.66448537814659      103.51302208045766      118.49756241156946
C          115.84409661276493      102.72737729540943      118.79157725201348
H          114.80228928588858      104.49815101572024      118.27770383358613
O          113.13798238425395      106.02303604948457      113.97260685457778
C          117.09438545617031      103.56298529259178      118.55699690265510
H          115.79005925832315      102.37977266283097      119.82890291032049
H          115.84971899986871      101.83619247828810      118.15354610256558
C          118.38301028615980      102.76564640366573      118.74965218274407
H          117.05843775176406      103.95039245716538      117.53775354305297
H          117.08154298141609      104.42267972519795      119.22598411955008
C          118.70111694030450      102.42949349232686      120.20523347658049
H          118.31006623369456      101.83545706519699      118.18130625105114
H          119.21890173456806      103.34029862015096      118.34462278730484
C          119.07562004403366      103.65251884632359      121.03802942827046
H          117.85145358936509      101.92127494091665      120.66379659169479
H          119.54489082456767      101.73396224748886      120.21839423871944
C          119.48574611019224      103.22842282651295      122.44295477044280
H          119.91539269665117      104.17360186113090      120.57485603337780
H          118.23767609162176      104.34631986312888      121.10024433630137
N          120.08776403941138      104.31049440914799      123.18605881555534
H          118.62599332390785      102.87693359848441      123.01788054175790
H          120.20853627172730      102.40512703454692      122.36521255848584
C          119.80438939342181      104.53153833448735      124.48096674288313
H          120.79442952909415      104.84094611685946      122.68821102931970
O          113.25636066281159      101.83054829093088      118.92483886689068
C          120.68328169085446      105.55001349379859      125.18036194655814
C          121.78680969495250      104.80066561535278      125.94648975395803
H          121.12418956558217      106.24534462138752      124.46458733343898
H          120.05711113616570      106.09845509510784      125.88786423178398
C          122.90914153768301      104.31412984299025      125.02829046300488
H          122.21629736391870      105.45768492806654      126.70684416259517
H          121.33819211945837      103.94861320878024      126.46082037771944
C          123.81396770385824      103.27161094157267      125.69539678331681
H          122.48251547871537      103.87136039140947      124.12602226367248
H          123.51821185443086      105.16764357415387      124.72489340305637
C          124.41176561376051      103.81081682131048      126.98655540101905
H          123.23564159988739      102.37512331626695      125.91446531889281
H          124.62789588136476      103.01487436848153      125.01405568307469
N          123.76739697236255      103.39675392457129      128.07702135059250
O          118.93195908425730      103.91494371240134      125.07356717676822
C          124.08510455818298      103.78489196564472      129.43377031762145
H          123.00562442966837      102.73238387756713      127.97653363078274
C          122.83953803664423      103.64071203015634      130.30303185808700
H          124.87879248170694      103.13877524406858      129.82974959996358
H          124.45890599054184      104.81191904498634      129.42683364350702
C          123.05838645965257      104.12316383773710      131.73615162704857
H          122.02130918477278      104.20750575824654      129.85324108026416
H          122.54820282932772      102.58840226831542      130.30641591920525
C          123.09990084450817      105.64654672525246      131.81511046911731
H          122.24433472611315      103.75416238206972      132.36516274557030
H          123.98982364221064      103.70597241247920      132.12336225464244
C          123.27309861004744      106.16132073285556      133.24175672002383
H          123.91593201665708      106.01586909208186      131.19704056578641
H          122.16167477835207      106.03687449355066      131.41343093691250
C          123.21554538610333      107.68661670828646      133.29995142240628
H          122.47959268194519      105.75937763963533      133.87589270188653
H          124.22834257550387      105.82187300402687      133.64611721784681
N          124.37972337113166      108.30125808963510      132.70652616658805
H          122.30825294321616      108.03876888501975      132.79036545628273
H          123.17572177130265      108.03571170781679      134.33578800557817
C          125.04356523099318      109.30100495409972      133.32239601945346
H          124.77037245163888      107.87194963608682      131.87547076370240
O          125.37908890857290      104.56725350605505      127.00217319170497
C          126.30608870349407      109.72349293168219      132.59719475850025
C          127.36686986482418      108.61706574736031      132.56593923819568
H          126.02881867663923      109.98502147908086      131.57689369172138
H          126.70904929480147      110.61263357877512      133.08184444185849
C          128.28997551315626      108.75968545676638      131.35654337871543
H          127.95863756138910      108.66243418033719      133.48194088209172
H          126.88767072500005      107.63653170494919      132.54006094176918
C          127.59396823051898      108.44433403450866      130.02490067444140
H          128.66485614788473      109.78242992633028      131.31134579646198
H          129.13888333724952      108.08335585754725      131.46669544896560
C          126.98426900065290      107.05977505876801      130.05904884574787
H          126.80885136452746      109.17228549910121      129.82110726548211
H          128.33496517089731      108.49442553360002      129.22812167867485
N          127.86050105226778      106.07964618558135      129.83674810958769
C          127.50301078469137      104.67689098676428      129.89164127124477
H          128.83220523038975      106.33279006293655      129.69307997042873
O          124.64376094179698      109.83433459685614      134.34136736809077
C          128.72751974877005      103.77166243393991      129.81904947877098
H          126.94823669304834      104.49520613828577      130.81986114223213
H          126.83555845019725      104.45350297701792      129.05085535838018
C          129.71682549990282      103.98934833853443      130.96411101111198
H          128.38682467358325      102.73400488900027      129.82092762785325
H          129.23090647825592      103.94261694897820      128.86735034188254
C          131.05721627062726      103.29093371451675      130.71074382232081
H          129.88830492811294      105.05757136609273      131.09250821363446
H          129.28031638740589      103.61010294165567      131.89031865480618
C          131.93219351828094      104.02391732105255      129.68946065558620
H          131.60897395960183      103.21141131465031      131.64970983150536
H          130.86619408295587      102.27569877841222      130.35523816866589
C          132.55700582986293      105.30779063814417      130.26292170065150
H          132.72265950423818      103.35822237326218      129.33917284438442
H          131.32789442532592      104.29608950386682      128.82327375544511
N          132.66217540172354      106.36313247920857      129.27926070788016
H          131.92428338322873      105.68829400001412      131.06932804251269
H          133.55088630625994      105.10701366079853      130.66457071742889
C          131.62760150352705      107.17829950654387      129.02668239704127
H          133.49955372647784      106.42345731745660      128.71087499451372
O          125.79170329186137      106.86277858648809      130.29040715201802
C          131.90417167695071      108.25463711440028      128.00211843894942
C          132.28276982178321      109.57687554515211      128.68487917998840
H          132.72568027428869      107.93337866303280      127.36710194050066
H          131.01104526523812      108.39486322838250      127.39063785389136
C          131.06699079354289      110.27433300615684      129.28412107995365
H          133.02768249011015      109.38440744076166      129.46101279647533
H          132.74527683234297      110.22665573792729      127.93882266229588
C          131.38937889930293      111.65368853091735      129.85503726122045
H          130.30971425838800      110.38410733168321      128.50769934252608
H          130.64215254499808      109.64861919975068      130.06747266903363
C          130.14336496289744      112.36180529092383      130.35278292539442
H          132.07928745751551      111.56317959670389      130.69763504470316
H          131.87091308076140      112.28639041221787      129.10804031473165
N          130.31412907640237      113.64685993140452      130.67708289082574
O          130.55448488844689      107.07165933925380      129.60947024377214
C          129.25914497724943      114.43907834061990      131.26927434688110
H          131.16987720583174      114.12905741267264      130.41686912568403
C          129.77935231731803      115.24234939653911      132.45937366708773
H          128.82169508440865      115.10457501109647      130.51719884155492
H          128.48653889147923      113.74063680473517      131.60127676546534
C          128.64760867409848      115.84214832969342      133.29455032417135
H          130.36505289909698      114.57019941348003      133.09034244911643
H          130.44333124745435      116.03257445707969      132.10448116499876
C          127.93678959352430      117.01491085132713      132.62118327389481
H          127.91895604168026      115.05955695225975      133.51835741767246
H          129.05903098339587      116.18618612079919      134.24614141393360
C          126.73420941981887      117.47633873482393      133.44056497028060
H          128.63819561563827      117.84401517000840      132.50459205864973
H          127.59131617042748      116.73230592732298      131.62662218788472
C          126.09493229974824      118.73672949465329      132.86303625972570
H          125.98074478909184      116.68682739352560      133.45966647759616
H          127.04224509527511      117.66449138008713      134.47281270198363
N          124.79251723152774      118.96081937892222      133.48312690698583
H          126.78587582001164      119.58587923724255      132.99830919310241
H          125.93196741821423      118.60616028488171      131.79084348511012
H          124.38681749126064      119.82192609375436      133.13179848719611
H          124.90366862062044      119.06583453542072      134.48751400480322
O          129.05730146500844      111.79715431024341      130.45884386855172
C          114.72539974590502      129.30756702771953      111.02453673178644
C          114.82559883851077      130.14970897971548      112.27609567961510
C          113.30813057691290      129.31390954769893      110.43978199589749
C          112.22788885312072      129.00226307909841      111.47627447337497
H          113.10184595554047      130.29678844079655      110.00910554726069
H          113.27120421828124      128.57216923344257      109.64079976337425
C          112.50225752183927      127.71246020827951      112.25274799087853
H          112.15713325465337      129.83584462305615      112.17739373134985
H          111.26502087385796      128.91420092485734      110.96886425846309
C          111.33678154065211      127.37251226094273      113.15395442850691
H          112.68032110563598      126.89835416956439      111.55149487325814
H          113.38545837814324      127.83979005081605      112.87631575382889
N          110.28121441441164      126.85043311646713      112.52952610066433
O          114.50814021452479      131.42494331591087      112.07671468257571
O          115.16544793158890      129.72673007817139      113.35307353963039
H          114.53188103681046      131.92765759796546      112.94605377035955
H          115.02347559145656      128.28533246744951      111.25732844087547
H          115.41618015030798      129.71328895305933      110.28240965790756
C          109.04808035633957      126.50442350246469      113.20122448607346
H          110.37724133243647      126.56547754796105      111.56160067628210
C          107.89228337137349      126.48082439346794      112.20701356434597
H          109.14567785805870      125.52126174464125      113.67955264765739
H          108.87867550014005      127.24474917887997      113.98633843869108
C          106.61609939044926      125.89894284051077      112.81557807451844
H          107.70243270920477      127.49688051739477      111.86160488779072
H          108.20235114826086      125.88293072545966      111.34855045252600
C          105.37593168777860      126.08223963377273      111.93500468306816
H          106.76027345334566      124.83790083458861      113.02129594006509
H          106.42379242662022      126.39434434042461      113.77000523449681
C          105.57039024703334      125.62865314922152      110.48735331806401
H          104.55161169877883      125.51979337319875      112.37871525959450
H          105.09549702394601      127.13577615944617      111.94501471353368
C          104.31420589534562      125.80978988205310      109.64026339681693
H          106.37279107014092      126.20962944093256      110.03000407710587
H          105.84707491711157      124.57343112977303      110.45958196486561
N          103.89083300379052      127.19416648056921      109.64917925487704
H          104.51015978907743      125.46930536678103      108.61547433079765
H          103.48957191512376      125.20712678360496      110.03372161628401