3795
 energy: -5103.665552308855 gnorm: 0.000999092634 xtb: 6.6.1 (8d0f1dd)
C          103.18445780200567      125.61256344976988      127.09237243687252
C          104.44288422210153      124.77634847447976      127.03178145366307
C          102.79833275064800      126.14989384922693      125.70967648925897
C          102.50858973831329      125.02849713714441      124.71459789006703
H          101.90801959259808      126.77115512222832      125.82018901468938
H          103.60486672669930      126.77613775305981      125.32728561567309
C          101.98411556679363      125.58918728192926      123.39314022036842
H          103.41809670896050      124.45499555603010      124.52471904801543
H          101.76390887761816      124.35021628517860      125.13795851115258
C          101.56004080197731      124.48308542658826      122.44896574233069
H          101.11573551441170      126.22258510134297      123.57921921390603
H          102.75852133604629      126.17782993605539      122.90239653810228
N          102.56365152910718      123.79570298383543      121.89825534425268
O          105.53420143124825      125.49988634212173      126.92012159947429
O          104.43616848270840      123.56387096295281      127.08454669996908
H          106.38732250907985      124.96920033743669      126.99863908649512
H          103.36633280206401      126.44968608880394      127.76619200524999
H          102.38022020485592      124.99017373731762      127.48547639668404
C          102.29497910180213      122.80933983355706      120.87212610236664
H          103.51783490228871      124.10799457813036      122.02508555301412
C          103.56622192507427      122.23903983933968      120.26082268637572
H          101.68779798694237      122.01222920335981      121.31481194404265
H          101.69650232360080      123.29065609538766      120.09056852540589
C          103.28936255501327      121.60651866538275      118.89560109568109
H          104.28770225562015      123.04891264713139      120.13790262092564
H          103.99980948961544      121.50108935726819      120.93692011701594
C          102.20575670947991      120.52968134623066      118.94218572580824
H          102.98205063838577      122.39049147227392      118.19875777627034
H          104.21437565068429      121.16917822771475      118.51696193910364
C          102.01419219172330      119.86120527981866      117.58199031761613
H          102.46733543238891      119.78157999488856      119.69199137535847
H          101.26076569384732      120.98168068702770      119.24419549987078
C          100.76538988912276      118.98158844758639      117.51879645444848
H          101.90693725358248      120.62362534433750      116.80846803367047
H          102.89208564294630      119.26178340808318      117.33622302343220
N          100.75790688324425      117.95080033354368      118.53241214319026
H           99.87577765560867      119.60892116152245      117.64688463022355
H          100.70346554659596      118.50169181805933      116.53927724579422
C          100.68891875304402      116.64142450782508      118.29163367460616
H          100.79472567978927      118.25585845551076      119.50120399288721
O          100.37911085847392      124.21283680331366      122.23587660177421
C          100.59395647813106      115.78717514656331      119.53993804714510
C           99.15080088167326      115.30037884632688      119.70208914042171
H          101.24968631131253      114.92166664062759      119.43679266658579
H          100.89761866105425      116.37166460658626      120.40506295432944
C           98.96334096290515      114.41289045015620      120.93251415518890
H           98.48385472499422      116.16284655479605      119.77089801382120
H           98.87413434961589      114.73676071798387      118.80842300100342
C           99.03706422119649      115.20608277820841      122.23996484446604
H           97.98507966281021      113.93015847169266      120.87556950872876
H           99.72402002631217      113.63042774110222      120.93731395321926
C           98.78262928652465      114.30390833522614      123.43534193620583
H          100.01903480190882      115.66628917365009      122.34623450100014
H           98.27865111292810      115.99035992844821      122.23972391116703
N           99.77192740383543      113.44164838129845      123.69043455097072
C           99.70568616976107      112.46219908935436      124.75551300518282
H          100.55152042735163      113.36245797260112      123.04275377527313
O          100.67361515882261      116.15119599273569      117.16301632164465
C          100.03976736488863      113.06727576269823      126.12372030716161
H           98.69169980196391      112.05022745926117      124.79157046377178
H          100.41007362104291      111.66684862924026      124.50993193644693
C          101.39709904383810      113.76477859807980      126.13214325474158
H           99.25874598364609      113.78308780189582      126.38653310665043
H          100.02580083524072      112.26637602212628      126.86486090342575
C          101.81799291068637      114.19865304422026      127.53537706937200
H          102.15136064877358      113.08962998264617      125.72224115859252
H          101.34252696924062      114.64373265553219      125.48684635017912
C          103.06814584501652      115.07444847582443      127.48827755660443
H          101.00247238537497      114.74910222945837      128.00913859175694
H          102.01310569788417      113.31520005552436      128.14688697118649
C          103.69774200737828      115.29330627543077      128.86265672817024
N          104.32530207586893      114.07840136866012      129.33237125591441
H          104.44865225430701      116.09062919240617      128.79640988640764
H          102.94723237823132      115.58557547513463      129.60137130966396
C          104.17483926195807      113.56831298273971      130.55874998212576
H          104.91703763694176      113.59011107311595      128.65855131545507
O           97.75456382603215      114.37385644470872      124.10611533273403
C          104.88335908848093      112.23566527957610      130.75698771068409
C          106.39831101106206      112.31678753889260      130.51955966838725
H          104.66786048167545      111.88423540004803      131.76609028777386
H          104.42615939503632      111.53639645899096      130.05546216669421
C          106.99130358808073      111.05074946583646      129.89712934694364
H          106.62096424039711      113.15716307670675      129.86467921167787
H          106.89663810248940      112.50508885125603      131.47140087288187
C          106.50118302159655      110.74701867904727      128.47311563048558
H          108.07804296068825      111.15479067719957      129.87698988412086
H          106.75192055221525      110.19275960003289      130.52813936710618
C          106.77726188006933      111.85198628077001      127.46824549782714
H          106.97714129040396      109.82721314376022      128.13139279270507
H          105.41973513328384      110.59188226709585      128.48626238963715
N          107.53371808942012      111.50057111140629      126.43527812303873
C          107.85713385439662      112.37989058766325      125.33110781973292
H          107.91553632315967      110.55942060044740      126.35974736992375
H          103.80959169387766      114.60072005064873      126.84364205420695
H          102.81444149228230      116.04426154509784      127.05936359749172
O          103.51167699785731      114.10372583865770      131.44474579921012
O          106.30595270167363      112.98774719445501      127.59229867557609
C          109.32416107447899      112.23316513873209      124.94330549063407
H          107.21857641517158      112.13087384157926      124.47817571204843
H          107.64095774195218      113.40094647133928      125.64372192971133
C          110.24844610645667      112.85477754208172      125.98732700936796
H          109.55333549837130      111.17230718426153      124.83284330971274
H          109.48807220137745      112.71303293915658      123.97814886164383
C          111.70934731124534      112.49449005466290      125.73289947490578
H          110.12385471588118      113.93808715550659      125.96714861042857
H          109.96311822726658      112.50638583799451      126.98184319912539
C          112.67606308784586      113.24032538766816      126.65164352789795
H          111.83479370647601      111.41862479806996      125.87582620257230
H          111.95946708692519      112.71995043083629      124.69434803887727
C          112.80169045233029      114.71752669715478      126.27566420029511
H          112.34568209328388      113.16906002643232      127.68973006115127
H          113.66739438558079      112.78452718142796      126.58642828620651
N          113.79197145338385      115.39038968327580      127.08634161669598
H          113.11208665704815      114.81302662794559      125.23309273025650
H          111.84849859812080      115.23189079954459      126.41399171593548
C          115.01103722404291      115.68834597718100      126.63427593062102
H          113.58337461339126      115.43938499634650      128.07785233462403
C          115.96373227577972      116.28703692871878      127.64853125572562
C          116.82338116094705      115.18251983618352      128.27954627573018
H          116.62297082238733      116.97946422044799      127.12605962280578
H          115.41513762170045      116.82732522401626      128.41933791712347
C          116.17075306687457      114.57133345513971      129.51473576327899
H          117.00045088723485      114.40146121846898      127.53573890548270
H          117.79628176147122      115.60054502900161      128.54418057044487
C          116.90106723807169      113.30287070587022      129.96277765107519
H          116.18300280457861      115.29924050750569      130.32986575682469
H          115.12963777773226      114.31845214549779      129.30651935901000
C          116.26873526815614      112.79627925674895      131.23838851923108
H          116.82212679707017      112.54255452522496      129.18837247987827
H          117.95412930522683      113.52218253275724      130.13816669221632
N          115.48227141324250      111.74346707147453      131.08873177188107
C          114.67263319187478      111.16121021983885      132.13814926151372
H          115.43846006999827      111.29121797315297      130.17424654300498
O          115.35256740909354      115.49906221193694      125.46634157442408
C          113.44523416407904      110.49147920607557      131.52918457799692
H          115.26540292043509      110.42389721138906      132.69274645134649
H          114.39309045010974      111.95930933288402      132.83193383384727
C          112.49137629577045      111.50214504915718      130.89688554115676
H          113.78797773007295      109.78860057037257      130.77140659828962
H          112.92483745086868      109.93342928046135      132.30807564861772
C          111.26888775268000      110.85335234179436      130.24418458342083
H          112.15366811957387      112.18963504828292      131.67565064360534
H          113.02944130533912      112.08881187691379      130.15002476788143
C          111.61533188973932      110.02075552986470      129.01143380913919
H          110.75811741644317      110.22579848651225      130.97749752591440
H          110.57808433507903      111.64662876762814      129.94602276189067
C          110.36607388640826      109.47106548818749      128.32833098912809
H          112.17773680588044      110.63306816404858      128.30555824618028
H          112.24404535499163      109.17598088592572      129.29032868306436
N          110.73947530173191      108.63704591021056      127.20420718841244
H          109.78030886240055      108.88510250358075      129.04822806014081
H          109.73558035092383      110.28064875861244      127.95199261630685
O          116.43827753023632      113.36455889827999      132.33038462455261
C          110.00058843964365      108.49334041209985      126.10445195970952
H          111.57478729723614      108.07635243809540      127.34539066039345
C          110.59142762927223      107.59416720307691      125.03296745801470
C          110.59252432679735      108.27943741248411      123.66356152610021
H          111.60072798982137      107.29552295861514      125.31531884999291
H          109.96608589749897      106.70164805568770      124.97156928909462
C          110.97211625054253      107.31226786764542      122.54209612522180
H          109.59472514303302      108.67901693673632      123.47328563984671
H          111.28733904932496      109.12156560542867      123.67579487540131
C          110.83164181672895      107.93547276169571      121.14645594678638
H          112.00013495605258      106.96930389084473      122.67810536825614
H          110.32514817690252      106.43260728625062      122.58959984160504
C          111.67252730111390      109.19004099700724      121.03025517955194
H          111.15281398207428      107.21811263711817      120.39049104482028
H          109.78836745045315      108.19352235975801      120.96349978697219
N          112.96139428045878      108.97809288655974      120.77808846100126
O          108.91122401215614      109.04619196956106      125.94969755315694
C          113.94833514584164      110.03542438093842      120.79962207974818
H          113.28612979774719      108.03727362837621      120.58683385261990
C          115.31679304820295      109.51363791196025      121.23396384686815
H          114.03946241698478      110.48387032150086      119.80254289365672
H          113.58264665751348      110.80762380574993      121.48153419729161
C          115.27796734202239      108.65669553575528      122.49873822331315
H          115.72501977483925      108.90668911099884      120.42316407854000
H          115.97784599674308      110.36847681103067      121.38737577382103
C          114.95443076888994      109.42831556895875      123.77549663651361
H          114.54188450399869      107.86180814895327      122.36772201215361
H          116.25223178376338      108.17926005623796      122.62497245180239
C          114.72544765682487      108.45571304799800      124.93197630067169
H          115.78108768851432      110.10147695933486      124.01220581252215
H          114.06114888957029      110.03841038047091      123.63435367570342
C          114.76236566237310      109.11778265258471      126.30245538772621
H          113.76193821946427      107.96377011671468      124.79588659251527
H          115.49879787707582      107.68494192784127      124.90714014170324
N          116.13633382657386      109.28100592671974      126.74040913027375
H          114.28085704398593      110.10087821346606      126.28098385803399
H          114.22558994636350      108.50427565778458      127.03523100270928
C          116.46617477405646      109.92822995699532      127.85142503693675
H          116.84672358332611      108.77320528529738      126.21627959440544
O          111.19950498734693      110.31891871519437      121.18034096371605
C          117.95045082946061      109.92547973200058      128.17801497169924
C          118.71246680950208      110.87776105323324      127.25564097447253
H          118.08511666048923      110.22461217131965      129.21805013644041
H          118.34113962716077      108.91554780918651      128.04472122104318
C          120.23050291739905      110.79401192072368      127.40594068660201
H          118.46741694629264      110.62862977445315      126.22147820461431
H          118.38609677521428      111.90384393971355      127.44368922310855
C          120.73381708721067      111.15965173725775      128.80267676083960
H          120.56447076814398      109.77864181571519      127.18034479569870
H          120.67469833902204      111.46685518573834      126.66951749144916
C          120.74239374920772      109.96085437923341      129.74355483038823
H          121.77281858336438      111.49344836541368      128.73630891975753
H          120.14595333305219      111.96967609483671      129.23430743081124
N          120.47432109658820      110.27430133189354      131.01891105563746
C          120.36882737337680      109.31138362438209      132.09407735585322
H          120.18012715204529      111.21674274329810      131.24058085429601
O          115.63194572601932      110.50574812011033      128.55343533369216
C          118.90289255336688      108.97743655086245      132.39182269684164
H          120.90918079188249      108.41249994213901      131.78938456697389
H          120.84815658817905      109.73879113343403      132.97830362103650
C          118.34503881287854      107.96030442209104      131.39429703896857
H          118.81736953089600      108.58858897740322      133.40681077563175
H          118.32717747835119      109.90552469610068      132.34047143127950
C          116.82263542850868      108.00667472917685      131.30849826349521
H          118.76589128154535      108.15740986242069      130.40818130280294
H          118.66808240945777      106.95970968314958      131.68791328150124
C          116.26802611920145      106.91774675791341      130.39460054537881
H          116.40069951864902      107.88649829111448      132.30877506281922
H          116.51493494501730      108.98257445884592      130.92850241131714
C          114.74851169664528      107.01841581267600      130.28763520560787
H          116.71206130418204      107.00814053538426      129.40149017422735
H          116.53665420292877      105.93971670015627      130.79514310221117
N          114.17479964553324      105.87258408230434      129.61939523572823
H          114.31898733083474      107.09870692062678      131.29296809155528
H          114.47434469870956      107.90909119019435      129.71709675564910
C          113.32381793727046      105.97019030463997      128.59860693309543
H          114.48331709623257      104.94996313921979      129.95207016232402
O          121.02555942222219      108.83111970338578      129.36591161893907
C          112.82799978876976      104.64548294503247      128.05379668311789
C          113.13685301565847      104.51817754331772      126.56061426499193
H          113.28882039765233      103.82684295945637      128.60268475304585
H          111.74663074887467      104.60370824436077      128.19881998537471
C          114.62424193171717      104.69645220359295      126.26705164679558
H          112.80733574425493      103.53633455202254      126.22093399651165
H          112.57792520078250      105.27572539551186      126.00888584844918
C          114.98662530654808      104.28018029996545      124.83376326940312
H          114.89918318017082      105.74174902937609      126.41666395810795
H          115.21376488762651      104.09783210216924      126.96343706200190
C          115.05392898397095      102.76848379505479      124.77642799210911
H          114.24178019652469      104.65401388252914      124.13213552451573
H          115.96627107384238      104.68781789484225      124.58159210130297
N          113.90224425965981      102.16929359158927      124.46969763252845
O          112.95126333334096      107.04674489590546      128.13030170133530
C          113.70274834245102      100.73732225377667      124.51429887236172
H          113.14827477287230      102.71656824836977      124.06256237129489
C          112.30291047349731      100.39951970546221      125.01967962014437
H          113.83964727178046      100.31242533456168      123.51748913244840
H          114.46709957332085      100.31714977388172      125.17272146212397
C          112.02936597044906       98.89580606242595      124.96969101460535
H          112.19814905706518      100.75470586133505      126.04630533563510
H          111.57118384026897      100.92390174095532      124.40109986323121
C          111.79930279773822       98.37519972293580      123.55166073250300
H          112.87160225307773       98.36246479151214      125.41404845727543
H          111.14422324629214       98.67475980072741      125.56871165791959
C          111.64423073052436       96.85656051778018      123.53778291343666
H          110.90356372350530       98.83902119471688      123.13299769076492
H          112.64333036592969       98.64040351471485      122.91525559125638
C          111.32793402613358       96.31342702330896      122.15098081769651
H          112.57008972132957       96.39881085349114      123.89056394879394
H          110.83884948674400       96.56218893003611      124.21197108363117
N          112.43554907162243       96.53455908834908      121.23982240138885
H          111.11519189279136       95.23833837186292      122.21112312365229
H          110.44394773878480       96.79957381583877      121.72704853579968
C          112.26907221483862       96.47157160148664      119.91973885667356
H          113.35846579471084       96.55382036341778      121.66767159585045
O          116.08092474843336      102.15008532377827      125.06230154198330
C          113.48139968595295       96.65591275852113      119.02210630157496
C          114.84689829010863       96.63496615192113      119.69661973019564
H          113.43759576008176       95.86116246182191      118.27244056949705
H          113.33663003321952       97.60058702329532      118.48798099411744
C          115.19577584126357       95.24644102822451      120.24013903136425
H          115.60027572298500       96.92092104883604      118.96029950680976
H          114.87536220969575       97.37595804928125      120.49554043007376
C          116.39538701669960       95.29601260243992      121.18438098734589
H          114.34282040299193       94.82574120952037      120.77521225960140
H          115.41741068313435       94.57885248068627      119.40513462895308
C          116.12111351089456       96.14701977206029      122.41345859679768
H          116.64209032119746       94.28478721724632      121.51450914404047
H          117.26331162024692       95.69865114632374      120.65885702611062
N          117.21477561105033       96.45190755109998      123.12518873487780
C          117.22330778617064       97.40120183113446      124.21726670739102
H          118.11279716123134       96.12069698737649      122.80702190060595
O          111.15172751793916       96.30879096718962      119.41637452548524
C          118.09062248805790       98.62520471630606      123.89894126664460
H          116.18610751019878       97.69203041779924      124.38823098616224
H          117.60028792446484       96.91338888262118      125.12082196053154
C          117.80867407002893       99.24773440981591      122.53045465766574
H          117.90827413542544       99.37280090224078      124.67108684841675
H          119.14316946834536       98.33914022315786      123.94311485890067
C          116.37583632376928       99.75620946751245      122.40146991019262
H          118.49691681803742      100.08375663392799      122.38751357963841
H          118.00506916938838       98.51580037087572      121.74322307937881
C          116.07318238290677      100.27493146991844      120.99866949345611
H          115.68464020962851       98.94244012818008      122.62286709671982
H          116.21690206896760      100.54636609405948      123.13576011021675
C          114.60698617996795      100.67365796757288      120.84900263076084
H          116.69650779237350      101.13991711769405      120.77026714828729
H          116.29976734565470       99.49650937900397      120.26613268799854
N          114.33415099730554      101.05654316279889      119.48599997212477
H          113.96905527399237       99.82766687315596      121.11831162344438
H          114.37991094332868      101.50929709823333      121.52456132828316
C          113.18226811226511      100.97450035796010      118.81608786528359
H          115.11466188687616      101.49217011842926      118.99388096700939
O          114.99825059930185       96.52543345478480      122.73346794274210
C          111.96907367473148      100.38808747655588      119.51533500824100
C          111.38172826874775      101.31274710617008      120.59121599637504
H          111.22563687633946      100.22980083814511      118.73196306590744
H          112.21182551103077       99.41521079795069      119.94678689599968
C          111.42257503904570      102.77957159727328      120.16251772064719
H          110.34620685488630      101.01336494864132      120.76923820418469
H          111.92375406313322      101.20018377610197      121.52963985239751
C          110.47864080780283      103.66292577358611      120.97497849904919
H          112.43924530112979      103.16271979581538      120.26878989288213
H          111.15116938320725      102.85469238918397      119.10886659996291
C          110.79129692608356      103.62111582464507      122.45762954082490
H          110.59627572421611      104.69771591616968      120.64254932748504
H          109.43950212002002      103.37480160561699      120.81495915789750
N          109.72236227936521      103.70158683676505      123.25671896814684
O          113.10847603873127      101.35571512217231      117.64897456561737
C          109.83791718712396      103.71131328477320      124.70380176132588
H          108.80894760055853      103.87106937685391      122.85376342537667
C          108.56952833402292      104.24624260824129      125.35487578214379
H          110.04131165849608      102.69401537726164      125.05790045045410
H          110.69998904448858      104.33145602910497      124.96975017990843
C          108.77673803533260      104.50636859352596      126.84674234924427
H          108.28274015640187      105.17175091857440      124.85579288847106
H          107.76094831089254      103.52707883763840      125.21507966198836
C          107.48060446798320      104.85605107691048      127.57895897641603
H          109.20419158264393      103.61207673121768      127.30493867337867
H          109.49183749355261      105.32226882006643      126.97369627952222
C          106.78839105754822      106.09540609990212      127.01830356082716
H          106.79355266280935      104.00913729594822      127.52169344511395
H          107.71072102475935      105.02177722839681      128.63419072280891
C          105.58001637995423      106.50404118988349      127.85771226567236
H          107.49261198602476      106.92889419203371      126.96739324000843
H          106.43195626982131      105.89688352458768      126.00898920135992
N          104.85410831258766      107.57379891200995      127.18636234933695
H          104.89854954845771      105.65316972978933      127.95170744878287
H          105.91237696647067      106.77774702928457      128.87439354426920
H          104.03021236729684      107.82791470737146      127.71820324695875
H          105.44612499882365      108.39501078602790      127.11605268716463
O          111.93517830014400      103.51933864955099      122.89633056564301
C          113.42702477369797      135.32252447843646      104.72153109976198
C          112.62795782004918      134.75624734294723      105.87625478809039
C          114.93516636887088      135.30433648737764      105.00656058543071
C          115.54482180041421      133.91120250341274      104.87913615747500
H          115.42224809141831      135.96944629607790      104.29126411947566
H          115.12144760328792      135.69745352685482      106.00848863592059
C          117.05645529986872      133.94210802041027      105.10209173227851
H          115.07461004489829      133.23541082580434      105.59587017018029
H          115.35726766621777      133.51760430884593      103.87783554168047
C          117.72412545439178      132.64051268068332      104.68215440587080
H          117.48873942934004      134.72397185520495      104.47125370292868
H          117.29961020894834      134.17424020798975      106.13736896096816
N          118.65149409961579      132.18669627395704      105.52463456144153
O          111.95530101853862      135.69595830607167      106.50845315652231
O          112.59796580664694      133.58194259994409      106.17899869927194
H          111.38438467882311      135.35618981053329      107.26843077317197
H          113.09479548893766      136.34795026764533      104.56352793734189
H          113.22756300497120      134.72790974256259      103.82928725405263
C          119.48960295960882      131.04030759220595      105.23062132205807
H          118.84604207573794      132.69521947038140      106.38826856619431
C          120.47673415108792      130.77820392652976      106.35971105779934
H          118.85976299179873      130.15911113549029      105.07137054825733
H          120.02489021250186      131.21814461270526      104.29007091300508
C          121.56851658424935      131.84131591192929      106.44350997581530
H          119.93386744814752      130.74552255219589      107.30590733069864
H          120.92087222007808      129.79738333222301      106.19081842305687
C          122.54469362383719      131.58741068724390      107.59048045594567
H          122.11645763162819      131.87142173842221      105.49951047473799
H          121.10305151875265      132.81682588235367      106.59241517463789
C          123.63112965954990      132.65945486688722      107.63388659999184
H          121.99288422199527      131.59300071209469      108.53287873364452
H          123.00491706529107      130.60340252485472      107.48137454020491
C          124.54100416517878      132.55014376864185      108.85540690755316
H          124.24503556820305      132.60537060804688      106.73245868272745
H          123.15578975906362      133.64158261465514      107.65449867298096
N          125.44023747522812      131.41600064288190      108.80262700792308
H          125.14673382660322      133.45929114281768      108.93296575957257
H          123.94448734099426      132.44433264876690      109.76384584072848