3795
 energy: -5103.697131660013 gnorm: 0.000892711163 xtb: 6.6.1 (8d0f1dd)
C          104.49694680413307      131.48455264309001      117.91023870165944
C          104.41016261870564      130.14628630612694      118.61210056597626
C          104.69915151107233      131.31746582446891      116.40350833942878
C          105.98175158463418      130.54874662602830      116.09792368399984
H          103.84767155368655      130.77136641861682      115.99377848417541
H          104.73861317167750      132.30052631640311      115.93161519009062
C          106.23039792593576      130.43335565921782      114.58987765559300
H          106.83747526883336      131.04843613478880      116.55614657449058
H          105.90844052085387      129.55238676908797      116.53992556412105
C          107.34044569006586      129.43264729881616      114.35772661787753
H          105.31653158538022      130.12202510578464      114.08588550551188
H          106.53629521127246      131.40532676910632      114.19822499182129
N          107.02185661323199      128.13441552803508      114.39226895035063
O          105.15677203463358      130.10559595515195      119.69831137923701
O          103.73339377078416      129.21603920172979      118.22915436677302
H          105.08013968180914      129.24523713849294      120.18903621392015
H          105.31075040846960      132.05379644947425      118.35836197588543
H          103.55942907657155      132.01206998542739      118.09633775313064
C          105.70629825087124      127.52990712917251      114.45532316554608
H          107.81674274262480      127.49442217677753      114.36679249976190
C          105.78163950500436      126.05694927048566      114.06176160197666
H          105.28209454766387      127.62430783931832      115.46281104272714
H          105.03818435884187      128.05241370814318      113.76368453435595
C          104.39507494540103      125.43822678889886      113.90154909915466
H          106.31799336199512      125.97703139688613      113.11491228921939
H          106.34353432449339      125.50568718925260      114.81748485644884
C          104.47198240453118      123.95901471518553      113.52671055004978
H          103.83710450585491      125.55024544489491      114.83371759622119
H          103.84925481356926      125.98103129852916      113.12659978148807
C          103.08055044347992      123.36744660139028      113.31154626212658
H          105.05572894875777      123.85139584480494      112.61022299260654
H          104.98025870237070      123.41121102422460      114.32020331106837
C          103.11004068615848      121.93521646571030      112.78304350259084
H          102.52435323230989      123.39279381610598      114.24998403471312
H          102.54306137604372      123.98318441659734      112.58773928418874
N          103.45015867313170      120.98120088626261      113.81664174765562
H          102.12228544467891      121.68648086301489      112.38317518467980
H          103.83838170248960      121.86857524893891      111.96501152165317
C          103.29330964096879      119.65774475495101      113.74080855227290
H          103.88025650168323      121.34880603185148      114.66522471543904
O          108.50651579239889      129.78604928288283      114.18621910034392
C          102.67890609316049      119.12579118464468      112.45889471333244
C          102.61830290810381      117.60229684147048      112.42935172555887
H          101.67061026577268      119.53550083765728      112.36443943665206
H          103.26842108092396      119.48954123580143      111.61556018921809
C          102.03445895562932      117.09360003850799      111.11679150171904
H          103.62521669762893      117.20117481677700      112.55075129881085
H          102.01206743551261      117.24697661993800      113.26349995495154
C          102.06938026934753      115.56327282566122      111.04710228122865
H          101.00318345933324      117.43797902375795      111.01232034355381
H          102.61939989706188      117.49807205150840      110.29097093177185
C          101.34116987511483      115.09508390436875      109.80500508340829
H          103.10561637228535      115.22570354603712      111.01384963862218
H          101.58278298364827      115.14043170549522      111.92531871248050
N          101.95779916253579      115.41570018394799      108.66695469514194
C          101.37986161650447      115.23464361312411      107.35321914410088
H          102.83581867148044      115.92795868381135      108.72217964876459
O          103.62436403746743      118.91416649948077      114.66608058180084
C          102.45094045535802      114.86680355501539      106.32903446589356
H          100.61439919806119      114.45932146415475      107.42875212603920
H          100.88815400008757      116.16774969595780      107.04971149239603
C          101.97519734813530      115.07761040492841      104.88927032514553
H          103.32316125269493      115.49847474183940      106.50480394705762
H          102.75660175840235      113.83155624591107      106.47922260522357
C          103.13629585236573      115.29142474016194      103.91660399414185
H          101.37804605291423      114.22523827916068      104.56318540871952
H          101.33447000323864      115.96109144443415      104.85079967148133
C          104.02123273012977      114.05826712133064      103.77108912029539
H          102.74091705041182      115.56132017045431      102.93519694610553
H          103.75344652931693      116.12319049157321      104.26486306461618
C          105.28099800907673      114.35589079713245      102.95739446399669
N          106.19016390135384      113.23584432152519      103.00958756500360
H          105.03921569727302      114.54274777890149      101.90779434271505
H          105.77752708211777      115.24061527431626      103.37155729951272
C          106.57779661734783      112.50698068435760      101.96046579067993
H          106.49473622612945      112.94550391069184      103.93612569319690
O          100.26384030007617      114.50005265624164      109.84630932263548
C          107.39447150261496      111.28602123255584      102.34233143031157
C          108.66287820069704      111.13857037539941      101.50814057843394
H          107.63470593166493      111.34183078458894      103.40087489092063
H          106.75971365141436      110.41611605509736      102.17587921321409
C          109.38207151360201      109.81333530051350      101.76455307104632
H          108.40488712194860      111.21065711349966      100.44896305856219
H          109.33590126230727      111.96840045393850      101.73288129328201
C          109.63939448801864      109.55886970077442      103.25485039569190
H          108.79062835761654      108.99307981810138      101.35190989058842
H          110.33840780612059      109.84577346467557      101.23975068130675
C          110.75470685142864      108.55540262790069      103.47336666909695
H          109.93765638394761      110.48877495540867      103.74048771224214
H          108.73291051584296      109.19220796449142      103.74029342839273
N          110.55166916169865      107.33828929780371      102.95186046117111
C          111.58739813846049      106.32403137335972      103.01363609446420
H          109.72301332557080      107.13004635734892      102.41376305358796
H          104.33866228213448      113.71252643633731      104.75508005575162
H          103.46418616906180      113.24626501946192      103.30003898518382
O          106.28547436344481      112.77794542391142      100.79530242181551
O          111.77060126317271      108.82698719694693      104.10586142731289
C          111.08632337284990      104.98961971366754      102.48740227744315
H          112.44571039450192      106.66922694600501      102.42789320108521
H          111.91058939194640      106.23425836685998      104.05688259204038
C          112.18107801540989      103.92150719509837      102.50410908796437
H          110.24296926222766      104.66781895904991      103.10154358175495
H          110.72473460557447      105.12862623628394      101.46798836172793
C          113.23835374352333      104.12844077573794      101.41797616831006
H          112.65458996614382      103.91665103313655      103.48676188424557
H          111.71613341461915      102.94652613664543      102.34904702839916
C          114.24218734158762      102.97391333384915      101.36337210701554
H          112.73950975342123      104.20660895722168      100.44967481337822
H          113.77561716200992      105.06240833880918      101.58419776093670
C          115.30851646627799      103.05169851740578      102.45065825139039
H          113.70624588279938      102.02875235563384      101.45852744950722
H          114.74059065463088      102.97421496464584      100.39227810590180
N          116.38812788198665      103.93999290075577      102.05705271567003
H          114.88025236280460      103.41451744188439      103.39039666209922
H          115.72951561190274      102.05837781867832      102.63787222093265
C          117.49836177572119      104.08027522195070      102.77645266925973
H          116.35735981681965      104.31818996842556      101.11229276717626
C          118.60112886753701      104.88895142659264      102.12914116233004
C          119.58787420244951      103.94471651268681      101.42721031225783
H          118.18837159068624      105.60253402732030      101.41978263570678
H          119.13069543893269      105.44048153943950      102.90851499898893
C          119.01440623034414      103.23056189291813      100.20225516515679
H          120.45896923102602      104.52250003865821      101.11180826649954
H          119.92451833927343      103.19642617266622      102.14981319648366
C          118.94723058043563      104.12670706635518       98.96346164296951
H          119.66170752506463      102.38281293158006       99.96884938462732
H          118.02044861464131      102.83691720364867      100.41864988254180
C          117.85937767402399      105.18184281563511       99.00793332786994
H          119.90957271181607      104.60808712236501       98.79347776029969
H          118.72144343160646      103.50186761279379       98.09490581673921
N          118.24381170640468      106.38566024491726       98.57586127790039
C          117.33192511817661      107.49056031882277       98.38617348220376
H          119.22323607148260      106.54202537349009       98.35234884940979
O          117.64350535950739      103.56264969818619      103.88768592451585
C          117.48480473330628      108.11341048335899       97.00141792481344
H          116.32138742553013      107.09555347129059       98.51702125553820
H          117.50904939593065      108.25563864443259       99.15121845836367
C          116.44943274380864      109.21327738859965       96.76913589084353
H          118.49133251765701      108.52289851618563       96.90763580685294
H          117.36837245031769      107.33758960497741       96.24267507664236
C          116.73837851169476      110.01367641251755       95.49775716211813
H          115.46200621259872      108.75521574296667       96.69107798768250
H          116.43306134995852      109.89152145592506       97.62436682617395
C          117.82696794082506      111.06349579554899       95.71220860570162
H          117.04026696372112      109.32953837288954       94.70284827449898
H          115.82824848990376      110.51815142892551       95.16958681964294
C          118.25912708971732      111.69452975633509       94.39382786181868
H          117.44540439739370      111.83975265259372       96.37765440385409
H          118.70249333063968      110.62019069911517       96.18821563049562
N          119.22806762328614      112.75064168155455       94.60320422302549
H          118.69979068790342      110.92664613395381       93.74670014699007
H          117.40613789363572      112.13014445009399       93.86605197906951
O          116.70709968976527      104.94277560582536       99.37610813875860
C          119.18938241169117      113.91527463468491       93.95256926770344
H          119.95275115916736      112.57544597270389       95.29639057644729
C          120.34309722958675      114.85388173028964       94.25567006984160
C          119.95897519526926      115.98053941534081       95.23496850767383
H          121.15987572155464      114.26505706309068       94.67044140056868
H          120.67555044406890      115.28977246271917       93.31252700546924
C          119.71394451807792      117.32955665708062       94.55605022164059
H          119.07127464452313      115.69317051744709       95.80234205256983
H          120.77157944422156      116.10562559666104       95.95262528856009
C          118.42597146650526      117.37403365641896       93.72796926542499
H          119.63946304466512      118.10087131917452       95.32422182019234
H          120.56501595408386      117.56773878067686       93.91487068234331
C          117.23077588872390      117.25072427368124       94.65704652879803
H          118.36454571983099      118.33640815702090       93.21769202501717
H          118.41488865946260      116.57365304949082       92.99050198322293
N          116.56791797924285      116.09126344123278       94.56153667365680
O          118.28801886191745      114.20504616971482       93.16299547652638
C          115.49581196438130      115.72562111919767       95.46808866418488
H          116.91428528984096      115.38089421334789       93.92728566762652
C          115.18944149725714      114.23628766372394       95.35806162191807
H          115.81128439002401      115.98819796619105       96.48348233248220
H          114.60382949593350      116.32041352077951       95.23939105113531
C          114.32548196927955      113.71361163376329       96.50821797042281
H          114.68324935886218      114.05355768741715       94.40873972120563
H          116.13307641467905      113.68766656092569       95.34217262518192
C          115.09788130185807      113.64571498605731       97.82521417921089
H          113.44803979866346      114.35063038993736       96.62155059269047
H          113.98019331829396      112.71036974977520       96.25300547001724
C          114.37966455217516      112.85915315015311       98.91996855059588
H          116.05921243523723      113.16362337641783       97.63720699496619
H          115.29672945179047      114.65368092330546       98.19190361075997
C          113.08940092295076      113.52975765765396       99.38931780086087
H          114.14975028994044      111.85193473362938       98.56712956728998
H          115.04409184890831      112.76601413664837       99.78275388551059
N          112.61919792970225      112.91964672273529      100.61292952108917
H          113.25861972561307      114.58807738331603       99.60511917420963
H          112.31353200129114      113.45146448699992       98.62115611401072
C          112.28287295062151      113.61532730821274      101.70610319321931
H          112.53553001938670      111.90941087065248      100.61627452519774
O          116.91723430157266      118.13378148347711       95.44910133364647
C          111.85247072223044      112.76311529934097      102.88770804336595
C          112.76284565290608      112.96889361532477      104.10007480058493
H          110.83906466204036      113.07456827494678      103.15685866446346
H          111.83953985836968      111.71114000753819      102.60488411846438
C          114.15477667031506      112.37468628525821      103.90465434418749
H          112.84353728207412      114.03934889429217      104.30366821651917
H          112.29874530306834      112.48675275364175      104.96234989495414
C          114.94559044274727      112.39778596868001      105.21555475514580
H          114.06069375432533      111.34240008355140      103.55976180340380
H          114.69304364081360      112.94070679819735      103.14020436683224
C          116.33073134495726      111.80758193986799      105.01267984588247
H          115.02559592765141      113.41955669848004      105.58043786103390
H          114.42314784622955      111.79921916581112      105.96330592108569
N          117.27565628572336      112.70537637029933      104.72809060110367
C          118.64115239390891      112.37006333447023      104.38449716221353
H          117.04600334373795      113.69311052727596      104.64600004011433
O          112.31879300213903      114.84000073690372      101.76029132357047
C          119.16861691368494      113.35717473131714      103.34985189296353
H          119.26211453608796      112.41260820712328      105.28733684843806
H          118.65645062802335      111.34231100573214      104.01022973131238
C          118.42620474527941      113.26701449684984      102.01836530900020
H          119.04147392930784      114.36491616527726      103.74814740697110
H          120.23167238477987      113.17944097146548      103.18519259989282
C          118.89481641575243      114.36733770972286      101.06983212939390
H          118.58979921570928      112.28540404544061      101.57200183289268
H          117.35407349434975      113.37953427411692      102.19350831627632
C          118.30843051235560      114.24636408746004       99.66001173225152
H          118.60419416405425      115.32888794650404      101.49653754571446
H          119.98441993171346      114.34629679295081      101.01677264984740
C          119.14334208455085      113.36049574159242       98.74216707471309
H          117.29807061579264      113.84293187984412       99.72481800332363
H          118.23969662671195      115.23551918442087       99.20373181624065
N          120.41805874908096      113.99059861449244       98.46545276779928
H          119.31340217656680      112.38285186993464       99.20669329187916
H          118.62418598190010      113.19075506648164       97.79242679483733
C          121.28315470248715      113.56527378684339       97.54846104468601
H          120.61087609823467      114.86134305501949       98.95291506831263
O          116.54683212295001      110.60186004343021      105.10107376756652
C          122.57229794994458      114.36427172824882       97.48347576423573
C          123.72378620090582      113.56788343820928       98.10850489982519
H          122.81521981671789      114.55141728621892       96.43574738980118
H          122.44582311174595      115.31626143007266       97.99459774641501
C          123.49893017230163      113.20585990741409       99.57449640218425
H          123.84882443603269      112.64475169646379       97.53751616474300
H          124.64412249243594      114.14817707082643       98.01635216491638
C          123.48038712474069      114.41204979173295      100.51635628817591
H          122.55797849065850      112.66264131070048       99.68001551599936
H          124.30283263338357      112.53498720832160       99.88999895621782
C          123.28986630413314      113.93408630554345      101.94013691637146
H          124.40845679460337      114.97710456640090      100.44317690038338
H          122.65379999153831      115.07734387474987      100.26109507941129
N          124.07270841347467      114.50606709497009      102.85703281609585
O          121.07638175047036      112.58622576194166       96.82645255642014
C          124.08812747453992      114.05961590656726      104.23943194736101
H          124.66433166479243      115.28328472856509      102.59151542920638
C          125.09728814743073      114.82707332341147      105.08366603613493
H          123.08246370604589      114.17556382687732      104.65904590959866
H          124.32628501661186      112.98997108055457      104.24924887082096
C          126.53714196970100      114.63030719676200      104.60822434372216
H          124.85406576762824      115.88844828475911      105.05511355478306
H          125.00134023386533      114.48635730048323      106.11498555546230
C          127.55466465027536      115.41309528654038      105.44170626837052
H          126.78932696202303      113.56850385603232      104.63896986936595
H          126.61938154022432      114.96173896503340      103.57099077213338
C          127.74102808868048      114.85109320171662      106.84751348098565
H          128.51955325297234      115.39784978927202      104.92780484963376
H          127.24223840190453      116.45604288550032      105.51419279893857
C          128.81473806768270      115.59155379192400      107.63752422681502
H          126.80184393413798      114.89238682327138      107.39863576456473
H          128.04001369059105      113.80427694726387      106.78542320953059
N          128.51093204438288      116.99784357189684      107.79385592202719
H          128.90794759670331      115.12736286441043      108.62726689211316
H          129.78671237272090      115.52314926879015      107.13919505767302
C          129.44314978959795      117.95202806484639      107.71542092065980
H          127.52688392197481      117.25446831024698      107.91332483890339
O          122.47827876992592      113.05321744924012      102.22651478634793
C          128.91013943570493      119.36725457661066      107.88640856364690
C          129.53709873432467      120.33517851467255      106.88376690068411
H          127.82631477494581      119.36706020387854      107.78727437325890
H          129.17292429143646      119.69648864086798      108.89557114821764
C          129.12668080723645      121.77545254492168      107.17790651489544
H          130.62421864685078      120.23959567728785      106.93090895097389
H          129.23474988448265      120.06412874788302      105.86913449795044
C          129.74329446525545      122.78110015695385      106.20604698425768
H          128.04086739469409      121.85558375059048      107.14301908538522
H          129.45042878028659      122.03847801451143      108.18757037293334
C          129.28138287308511      122.64231668613807      104.76414215920693
H          129.49163499955918      123.79363894911701      106.53102497622173
H          130.83041089478397      122.68221804747243      106.20704414465084
N          127.96088020257473      122.73031087793623      104.57177763941388
C          127.34689506640827      122.76899838943841      103.26271033184059
H          127.32021239193604      122.83041088689593      105.35422139861983
O          130.64096630985063      117.71483378603750      107.56432150026768
C          126.32502739686397      123.90030745203967      103.18749408474855
H          128.14715331955961      122.90721382494640      102.53066704595182
H          126.85552263282187      121.81139624061990      103.05469676987522
C          125.68056093831227      123.99991841858511      101.80672790639458
H          125.55961440415595      123.72684563564536      103.94731380123835
H          126.82296720662164      124.84171553622481      103.42820318151358
C          124.56133330116228      125.04012846145517      101.79800589258184
H          126.44398444505504      124.27364616171643      101.07529461996914
H          125.28596707501704      123.02242258920444      101.52462382771120
C          124.01519892414119      125.35491095911941      100.40475460972094
H          123.74763666542802      124.69274455966729      102.43709113947781
H          124.94192013823314      125.96781978208303      102.23033552554018
C          123.48558966340805      124.13343406449680       99.64988094870664
H          123.20943881664473      126.08324656107851      100.51144088518522
H          124.80070209046308      125.80735610482883       99.79805614388884
N          122.52786965900356      123.38021117777586      100.42696127525738
H          123.01329930205175      124.46968858077427       98.71880821595457
H          124.30168627326393      123.45237424712610       99.39853402491462
C          122.67656936442910      122.08527158521323      100.71591877090083
H          121.78663267116831      123.90194422144427      100.89199381199441
O          130.08117293851754      122.50079711367061      103.83992787243021
C          121.63532115585039      121.54329063744927      101.66970119539960
C          121.95349106922039      121.98477754774272      103.10425035909948
H          120.66028150359047      121.93550547530816      101.38042458874251
H          121.60432121245353      120.45538150556536      101.60217172876276
C          120.72635494740609      121.87073630708289      104.00456319276104
H          122.75959924814360      121.36723069673042      103.50387703255404
H          122.30456893562440      123.01726271702766      103.09424273963178
C          121.01115193627196      122.26977078950672      105.44759088276987
H          119.91751595087977      122.47699208345652      103.59615286251109
H          120.37996235087989      120.83599759270817      103.99071148388032
C          121.19765286538443      123.74277835266868      105.76496333001347
H          120.18833073395585      121.93638715600767      106.08709706197912
H          121.91029506920063      121.76259597467877      105.80710492121761
N          120.97502032198543      124.64779865224757      104.80855711100916
O          123.58209776526904      121.39243460184358      100.24824657743487
C          121.05507995941321      126.07026731849348      105.06899184833037
H          120.75489145174080      124.38315872535206      103.85513131222750
C          119.74996720578703      126.77609945030201      104.70154749891023
H          121.26019243143602      126.19015390106554      106.13534592576428
H          121.88763186174199      126.50028293675180      104.50295329035399
C          119.69754717900526      128.19447486490355      105.27059549014470
H          119.65830408258743      126.81139461150511      103.61405989497361
H          118.91787825153312      126.19259308435514      105.09698988236234
C          118.62877748205570      129.06363121621609      104.60595771700645
H          119.51375957988137      128.14861640334436      106.34554420192691
H          120.66825195659725      128.67370112444681      105.12506419036059
C          117.22247974491101      128.47514195406939      104.71462145310026
H          118.63963455126461      130.05078288707807      105.07390821917318
H          118.89503369052836      129.18914283857120      103.55336244434113
C          116.15927303018722      129.34670912047130      104.04120055571970
H          117.20036595707292      127.49146365282796      104.24168578131729
H          116.95770930752748      128.35580026857892      105.76610525997677
N          116.41605910552207      129.57748073805888      102.61365740107667
H          115.19161427277605      128.84109428708285      104.12793115965667
H          116.08255728251979      130.30936828910592      104.54952541817374
H          116.88710208125016      130.46163551899255      102.46805343330897
H          117.02258023012271      128.83965406652950      102.26000686022935
O          121.50812622587742      124.07235167072346      106.90981039014433
C          117.17214689351543      128.78759421223504      121.98832502991000
C          118.39804775677766      128.10478369805503      121.43019212944333
C          117.26116527082628      128.83493245266598      123.52212428635733
C          116.98001326326369      127.49343606995740      124.19800207219080
H          118.25993600546983      129.17663951831392      123.80034657380058
H          116.54459453370261      129.56595823410188      123.89729345584951
C          115.49003563841630      127.11661257488271      124.16275684397810
H          117.57192609631211      126.70621627011950      123.72797016238196
H          117.29387531524485      127.57233776992069      125.24019488719128
C          115.19965792264985      126.08587261345774      125.22840605726401
H          114.89564973156624      128.00552047415960      124.36921639274493
H          115.21793059173837      126.70965286929163      123.18941574327283
N          115.06570718512826      126.57483028705056      126.46021505700067
O          119.41230062051874      128.93964358800855      121.30142987906089
O          118.45758207844845      126.92865370367851      121.14594126088804
H          120.25006353751148      128.52634131908758      120.97773113220622
H          116.27910518393456      128.24822746111889      121.67774920471727
H          117.14665002939128      129.80559931539133      121.60244956303298
C          114.95947080576458      125.74207228751523      127.64253605374816
H          115.06463159173484      127.58303278259559      126.58393376436912
C          114.03115142219964      126.34162605590430      128.69174630139503
H          114.58907982873247      124.76226707197013      127.32887550161124
H          115.95911427236474      125.60486958251676      128.07071770973391
C          113.84397339314455      125.42293839939833      129.90101466718750
H          114.43468629492413      127.30068771497309      129.02206652696518
H          113.04948262492478      126.52615476080551      128.25081328679951
C          115.11947008010567      125.24680285515869      130.72204951403711
H          113.06514195490485      125.85594143327639      130.53245543563892
H          113.49071817352882      124.44927870938918      129.55619572754219
C          114.90111716353172      124.53631890083001      132.06041602192761
H          115.85933227277052      124.68938358743164      130.14975149064514
H          115.54186757930647      126.23124983389229      130.93505948572630
C          114.25985223601208      123.15406698894988      131.95314927422478
H          115.87225882055446      124.43235558232394      132.54935544260337
H          114.26625455737938      125.14781945629544      132.70438962962990
N          114.95215839651883      122.30259589651143      131.01025713915357
H          114.26076124448500      122.68417279726822      132.94562012560814
H          113.22031047518678      123.22848303639552      131.62067453541599