3795
 energy: -5103.006649653270 gnorm: 0.000929376506 xtb: 6.6.1 (8d0f1dd)
C          114.12547510966681      103.22184325483830       97.52075866512861
C          114.56469401842104      102.43150485967345       98.72986185370640
C          115.07458345682599      104.40056608699234       97.25929664125343
C          114.94342443792576      105.48821851200476       98.32114011864543
H          116.10151317413838      104.02884761604274       97.23097930549508
H          114.84507867210806      104.82374785411622       96.27960624246974
C          115.96777445225028      106.61161359812543       98.12430520186322
H          113.93657941113946      105.90762510704786       98.28271305018826
H          115.08206802841913      105.04884951268721       99.31031982701454
C          115.84707671388423      107.60286675384798       99.26287972271265
H          116.97406223532259      106.18821855470468       98.13754584955370
H          115.79957509051245      107.11278191552034       97.17150242447289
N          115.18519555915235      108.72419408938282       98.97726320695877
O          115.45844444863060      101.51549182208382       98.45341714579081
O          114.14193358056625      102.63290143857742       99.85335056518622
H          115.67158904693640      100.93195235873088       99.23507373383674
H          113.10951337817679      103.58129723660250       97.69005448897168
H          114.13818292185243      102.55254270257480       96.66075324526489
C          114.92042701640175      109.72792730481854       99.98426554319538
H          114.82713071607580      108.88910290954460       98.04104978518664
C          114.92427137594967      111.13479415799922       99.40323970356567
H          113.95181305149642      109.52047535843833      100.45040012550044
H          115.69707186100339      109.63990371587245      100.74888676243515
C          114.79687234033439      112.20266199045057      100.49423201070560
H          115.85924573704166      111.29206661077447       98.85974513103911
H          114.11052668094734      111.22842979018280       98.68262190654619
C          113.65805065458542      111.97744519296698      101.49235538684100
H          115.73336016248086      112.24189462913220      101.05605831179622
H          114.66305263279956      113.17147757611595      100.00975493207245
C          112.29384517990705      111.77933172397508      100.83253326893843
H          113.87967434324167      111.11231313610689      102.11659684893749
H          113.60897505308290      112.84506192826123      102.15245189070765
C          111.25824997002604      111.27658558754756      101.82781030029552
H          111.95344185579992      112.71850185448648      100.39286176820644
H          112.36471352498114      111.04186982033762      100.03477745396445
N          110.96980499048534      112.27580723227915      102.83226017380841
H          110.33002090628513      111.00092147416635      101.31159936866342
H          111.63096309847123      110.37772446174722      102.33239398421226
C          110.26482340256302      111.99014786275022      103.93305353730224
H          111.39240853484766      113.18814151641801      102.72452919728403
O          116.29926120284652      107.37562142711516      100.38311969448510
C          110.19977281129854      113.12890108745177      104.93518275227397
C          111.28360211085906      112.94470873150321      106.00383000234436
H          110.34420523826634      114.07807328698212      104.41999703394833
H          109.21918360063214      113.12301274897692      105.41321593107092
C          112.68557393247079      112.82133803284535      105.40788801009553
H          111.25379711533569      113.80901097387439      106.67244334539886
H          111.05920779497001      112.05202696163299      106.59096497374956
C          113.75193301113187      112.83543873333986      106.50393742647208
H          112.75049899821990      111.89616866118517      104.83561716793312
H          112.85422267969031      113.65584248621352      104.72477215949915
C          115.17728426667644      112.89101376733444      105.97600292695404
H          113.61692932851221      113.71373585381070      107.13991219582158
H          113.64876239073467      111.95288124401758      107.13959782788757
N          115.48112590851564      111.98441792216479      105.03736636420953
C          116.74681629449087      111.98744609309195      104.33363085480788
H          114.78572575587302      111.32530785640697      104.70082320328686
O          109.74053951813028      110.90367979029985      104.12681931965398
C          117.01125503120522      110.63083099246161      103.69017154710230
H          116.72507738608725      112.76844146576366      103.56052746316884
H          117.53573353013660      112.24912984474420      105.04527134257789
C          118.28253416776791      110.63034637490691      102.84383026558854
H          117.08518459225371      109.87895617242673      104.47443352232609
H          116.15612563376081      110.37202722227073      103.06454761171898
C          118.54835363974499      109.29205655444586      102.14995928705100
H          118.19386314214758      111.40761628041892      102.08094385431887
H          119.14130169679640      110.87575280094144      103.47247666507116
C          119.08089036180826      108.23859990860085      103.11716829253001
H          117.63577240357327      108.92732423184340      101.67790216042346
H          119.29028939061163      109.44675601784718      101.36302792142203
C          119.31673672703295      106.88266018333215      102.44852227693045
N          118.07890137141870      106.16556312999407      102.24314495616190
H          119.82810515893287      107.03139076827887      101.48987644213327
H          119.94263579003412      106.24893509295877      103.08518051602849
C          117.93098827106233      104.85804507007005      102.50320160122159
H          117.35175011330409      106.64701737462586      101.72393855338017
O          115.98743887066301      113.70468753727765      106.40244532441760
C          116.51702072707712      104.36785457041191      102.24787634935728
C          116.29222299757451      102.86724966135098      102.42060663079347
H          115.84802727178352      104.92282064666057      102.90540465613208
H          116.25789827410377      104.65131831298287      101.22543532890175
C          116.37386132563304      102.35236402183648      103.85902792960891
H          115.31551072030585      102.62032270397833      102.00086617091665
H          117.04410564600310      102.34127422902851      101.83131450031038
C          115.26134520829243      102.86197365929048      104.78442750432647
H          116.29560105684153      101.26299958848645      103.82529666678394
H          117.35321327291508      102.60274781741357      104.26620101339449
C          115.43292114378856      104.30009963660373      105.22063297372779
H          114.29384923274469      102.77875234914589      104.28755739656651
H          115.23416225476427      102.24573670407386      105.68525630823778
N          116.62713230710440      104.58711380390109      105.75926586819027
C          117.14566443201805      105.93337484891379      105.82872488522140
H          117.29618065217834      103.83291310909915      105.91858830221112
H          120.02346197253085      108.59921196699278      103.53504998298760
H          118.37573675014289      108.10709335876206      103.93722257532188
O          118.84734760723329      104.15743692568537      102.92473038361416
O          114.54022012127962      105.13417783435999      105.09856499481987
C          117.97883598745854      106.17170368605861      107.08415520226416
H          117.78235986808778      106.09870898970144      104.95038061857478
H          116.29749874997579      106.61783236557189      105.76801226554765
C          118.95154959455722      107.33694042700739      106.90554579522306
H          117.33307993420740      106.34209855689517      107.94455704244807
H          118.55408881971654      105.26594628053441      107.27886357700203
C          118.29646200163137      108.71917109667318      106.92882065221271
H          119.69298286735695      107.29628088850772      107.70463950954948
H          119.47830481808015      107.20166542137143      105.95915605090462
C          117.90387601014581      109.14472680164135      108.33926713378429
H          118.99551381426022      109.45110160886226      106.51998361651371
H          117.41065661651582      108.72029532771235      106.29316714535294
C          117.55944892047764      110.63356867338419      108.42715447593929
H          117.03987295765516      108.57264433699333      108.67620498331128
H          118.72345914364367      108.94953663754981      109.03196879690159
N          116.92454518933002      110.94220785792535      109.69159426284665
H          118.47720191762825      111.21947519424657      108.31681130997316
H          116.86605628032878      110.91549637136190      107.63443648939307
C          117.51892509043047      110.76448840113052      110.87748322392157
H          115.95187726486033      111.24544849323981      109.65724341130138
C          116.61533457214108      110.97285701457398      112.07472910328147
C          117.14493932577538      112.03881327650670      113.03249468488592
H          115.61176500169509      111.23491579694499      111.74334501592928
H          116.55166841611728      110.02893302239535      112.62036729849687
C          116.26689904810216      112.10042097803074      114.27961732828931
H          118.17117887474203      111.80242917135037      113.31351519602499
H          117.15108792371173      113.01179922265329      112.53525735995223
C          116.56221899346077      113.33679837251813      115.13119475998634
H          115.22007032667914      112.08824380610221      113.97457854245302
H          116.44259056684876      111.20909441949118      114.88323918054090
C          116.33066867058513      114.62920558648852      114.38647662904610
H          115.93631093511624      113.32718888238085      116.02464327865194
H          117.60747798506071      113.31278370210737      115.44111874846806
N          115.09562345223003      114.90070520204476      113.94228872582202
C          113.82598566930763      114.28747690519916      114.26089410257052
H          115.01400059705004      115.77827439805121      113.44188657395688
O          118.69612256915737      110.44367279601717      110.99347057164201
C          112.80312266495230      115.38279885262841      114.55379432529911
H          113.48233468052358      113.67467456221566      113.41767452226871
H          113.93413596420048      113.63997834384861      115.13179760648690
C          111.41789829485201      114.83026101034675      114.87798331199681
H          113.15680585000007      115.97569224637967      115.40074027904269
H          112.73244721932171      116.04753487080826      113.68923384626349
C          110.43630989600523      115.98626646237545      115.03984367426737
H          111.08316994953039      114.16087143130156      114.08353881842768
H          111.46424906834113      114.24475028160803      115.79907434944154
C          109.02543577973330      115.55456253092206      115.42378304875206
H          110.81700252858134      116.65288800137384      115.81473843436872
H          110.38428454346891      116.55014314068249      114.10635042167861
C          108.12590851758722      116.77952938570306      115.46504085933285
H          108.63843264649852      114.83740784985272      114.69816975836574
H          109.03374487202912      115.06780612634128      116.40237494139092
N          106.76806431817029      116.44015569137470      115.84554955255044
H          108.49986563480952      117.50422972993486      116.19632389052761
H          108.13378775387221      117.26914591294423      114.48533293843390
O          117.23958118416088      115.42981605218209      114.16818746013591
C          105.90171575775861      117.39379542301752      116.19968608917530
H          106.50066312283597      115.46282014405209      115.81152654621702
C          104.51651634319828      116.92409989859904      116.60391798317204
C          103.67399322078082      116.59746039836511      115.36528189142300
H          104.59367249489326      116.05233406831054      117.25738181359569
H          104.04870711999541      117.73909254714924      117.15574492359060
C          102.20848423186177      116.29101334614352      115.68485056270949
H          103.70877971124364      117.44782008710072      114.68265705963461
H          104.11370368534941      115.73908397718442      114.85091398429469
C          101.45592158364249      117.52655191760481      116.18199857652559
H          101.72606865692308      115.93027418080172      114.77449734435636
H          102.14672949858948      115.50353401726055      116.44118893795721
C           99.98536965339355      117.24668866481319      116.41768020605511
H          101.87260178497955      117.87329910613963      117.12785750201860
H          101.54182883027516      118.32677789203619      115.44513643134418
N           99.26849446375519      117.09453331357290      115.30153867880330
O          106.21532721311200      118.57893908456070      116.19961943573661
C           97.84882834258443      116.83568142611311      115.27671686011655
H           99.74639423105423      117.04405623606756      114.40462284911780
C           97.51530365500602      115.62611449076653      114.40559068357973
H           97.51761131234255      116.66135159775695      116.30137330855896
H           97.32628694681300      117.72043592942606      114.89041260649465
C           96.02255926810849      115.31235361240277      114.44374106159519
H           97.83782160052935      115.83855170435213      113.38654488403341
H           98.08230962855485      114.76505937467496      114.76471858516815
C           95.61951550123847      114.09695262378952      113.60482504284808
H           95.72961744717293      115.12902008428561      115.48037849369661
H           95.46294226538241      116.18433673816003      114.09648650878130
C           95.78991839866491      114.29844516642727      112.09232178539261
H           96.19844127840487      113.22875075274095      113.92560915135472
H           94.57104724195268      113.88266327824742      113.81814512054419
C           97.09083520986773      113.70842775643314      111.55303365331291
H           94.95736346050074      113.83567884945448      111.55912729834664
H           95.76870978318669      115.36544558213492      111.86335888723315
N           97.30908622981046      114.11465604042493      110.18258947825460
H           97.93675094706633      114.03848849245183      112.16690701330012
H           97.05344878946056      112.61521419094417      111.56979568733503
C           97.85538110766119      113.32927646557887      109.24880635417834
H           97.04401878195357      115.06207066473857      109.94021040245939
O           99.51043341872278      117.18816524963945      117.54931011595119
C           98.04888573671626      114.00126108272590      107.90434907680510
C           97.38064495537728      113.22080877574568      106.77111038349148
H           97.64047380284762      115.00951329213395      107.94879922629995
H           99.12318643520287      114.06539303557554      107.71840928064204
C           97.35960089632178      114.01135830550437      105.46366511652661
H           97.89879689767974      112.27243829488468      106.62367864302868
H           96.35071118242807      112.99499767873527      107.05758286884263
C           98.76180175217097      114.30605810134335      104.91876473250741
H           96.80884518418770      113.43831884484776      104.71474732726558
H           96.83160135305424      114.95522464165055      105.61928683341446
C           98.62760811558833      115.11691500239482      103.64848961834615
H           99.33391546186664      114.88790903740049      105.64074616984340
H           99.26292004974876      113.36240249866174      104.70932864828231
N           98.54045335929632      114.39650092872105      102.53521688152323
C           98.18897372908215      114.93075798022286      101.23507992826944
H           98.64394126292676      113.38749005130222      102.60460192713654
O           98.19109250577364      112.16936535567419      109.46625898126757
C           98.70123320392474      114.03298892205694      100.11516427805559
H           97.09521386930784      115.00542363895607      101.16676242369212
H           98.59749651072973      115.93718429815223      101.13894007181078
C          100.21816867573756      114.07468962463932       99.93791772300604
H           98.39083183927548      113.00728320628204      100.32916019716259
H           98.22177176204326      114.33733939008525       99.18260519317447
C          100.72928795797553      115.40160213512439       99.38112096787192
H          100.70866857352588      113.86811576919780      100.88883142237742
H          100.50256608947585      113.28151983981186       99.24348320391003
C          102.20117884196293      115.29308471134418       98.98892676384644
H          100.14195662763380      115.67805569878043       98.50156197179609
H          100.60795400195244      116.19428082785822      100.12132282218221
C          102.73324345549184      116.62134063995047       98.45753884271166
H          102.78759389753171      114.96795054278824       99.85013439513486
H          102.31048103038665      114.53919629741657       98.20715912553021
N          104.09391039390329      116.50201738736635       97.98726627930208
H          102.09959573120395      116.96358506476116       97.63036144155737
H          102.71804164261701      117.38346157683266       99.23984284940266
C          105.07980109362296      117.30317444310333       98.37773191150271
H          104.27432091835416      115.80129066935173       97.26707336277103
O           98.56134283632484      116.34929534711628      103.68527871677945
C          106.40728536010798      117.06918942593352       97.68822368885955
C          106.38941246376444      117.68295308932346       96.28286990195438
H          107.19272888248631      117.52332644624248       98.29218721917611
H          106.59416728732383      115.99845583186128       97.60639619448094
C          107.75655657130515      117.62569877226599       95.59558328458398
H          105.66384801490608      117.13256533233685       95.68131835155232
H          106.05991044243976      118.72283843159120       96.34384798771002
C          108.75861031515433      118.60230606385416       96.21358720068585
H          108.15480872731221      116.61262339169949       95.65958612611530
H          107.63047158054171      117.87589722781603       94.54014289802038
C          110.09672664943770      118.58362441881108       95.49148235883541
H          108.36009012575249      119.61506757632051       96.15444991639666
H          108.92651514945750      118.33871983579851       97.25786437163887
N          110.87624047024136      117.53943344933519       95.82520551665314
O          104.93165187269651      118.18998919333958       99.22287976863888
C          112.20417524442246      117.34427718015827       95.29442606014283
H          110.55251825780836      116.84832729274947       96.49442791089444
C          112.44159682795382      115.88361991257564       94.91548321302820
H          112.30949791394438      118.00106786357514       94.42728150168256
H          112.94711987542922      117.65103529746423       96.04485077267891
C          113.88422592574911      115.63892463235079       94.47872256139723
H          112.19719179711568      115.25940028545679       95.77652131929668
H          111.76459997772399      115.60969290207510       94.10498799892000
C          114.20335923031902      114.15712093386493       94.26025403086206
H          114.06304499244415      116.18617762295264       93.55103433355792
H          114.56684967319919      116.04243521897337       95.23103085256443
C          114.48664964015816      113.41320849757709       95.56569337383181
H          113.37378837951287      113.68031267960313       93.73752052947373
H          115.08753907496221      114.07630903464104       93.62352359172198
C          114.85587388788842      111.94816630359345       95.32874413581244
H          115.32125693768282      113.90200214803406       96.07340619498231
H          113.61731111821356      113.46045141273815       96.22323142157686
N          113.68958285823321      111.13542385396643       95.06701667515364
H          115.55744878576442      111.87810687606213       94.48826443380200
H          115.34050484078507      111.52079153493032       96.21098510457279
C          113.51547763577165      109.92309721248419       95.60772621340539
H          113.00046065881082      111.50303720600674       94.42509364746606
O          110.43061476904626      119.44481860172310       94.69723124071180
C          112.20120229841868      109.24967044602991       95.26874535837591
C          111.26739394242620      109.28486707702247       96.48493832688553
H          111.73295432330670      109.74672879063296       94.41914382413516
H          112.40650020343489      108.21053561960971       95.00675398239957
C          110.92492300658853      110.71479043819457       96.89295510772871
H          110.34894822030263      108.74560274380345       96.24544721930181
H          111.74463479988124      108.77179505221154       97.32213879166001
C          110.01526908489723      110.75192056399756       98.12171797745310
H          111.84397775783208      111.25946587532211       97.12108266415137
H          110.43253760142277      111.22651329817504       96.06507969840958
C          108.63376885859411      110.20312282579236       97.82016832221736
H          110.46250439696962      110.17701362167131       98.93117758505414
H          109.89383283470343      111.79152940004185       98.43470462514011
N          108.31672359551106      109.09559099550901       98.49041240579260
C          107.03063845148199      108.44547959771019       98.37085042995312
H          109.01543899573956      108.64076409415669       99.07895013118269
O          114.34128386260056      109.40691814488378       96.35222869955221
C          107.17487220253531      106.92942903757492       98.39091515640227
H          106.39128789883765      108.76305189002414       99.20236906839864
H          106.57291221293795      108.78050696188002       97.43626152542605
C          105.82943481455024      106.21180289488461       98.27612844119999
H          107.81735599329727      106.61824739596409       97.56506923542719
H          107.67244738191552      106.63947757694024       99.31814598500677
C          104.83142167430647      106.58350797867141       99.37747402474234
H          105.38453223692655      106.42937072132341       97.30303828887621
H          106.01678916677426      105.13637757538000       98.31388727706417
C          103.73986930588097      105.52394031417107       99.51863127319528
H          105.34997607885124      106.68503254166444      100.33339842170952
H          104.36766308201244      107.54493803561077       99.15109643825897
C          102.73565540897941      105.85714860160911      100.61965922042864
H          103.20287420446508      105.42500288194323       98.57371517346382
H          104.19642567318159      104.55938972405821       99.75110416702867
N          103.34847675585776      105.80707348396659      101.92810193893717
H          102.32359762467082      106.85954552485832      100.48298426369475
H          101.90923537141730      105.13649896671006      100.58467873363057
C          103.19738322638305      106.75328380031853      102.85892269050096
H          103.93190686396154      104.99401704038112      102.11599825570300
O          107.86405226088641      110.76118786941198       97.04083104658507
C          103.87716007416323      106.45698039721583      104.18390999312930
C          102.86437286010214      106.53101630500208      105.32964719685984
H          104.34241842682505      105.47243539179284      104.15067446963545
H          104.65244048962978      107.20836728621430      104.33667112232111
C          103.50699020382459      106.33881235964549      106.70447255551549
H          102.35967738831644      107.49842319292347      105.29084681992529
H          102.11043104447883      105.75491357218927      105.17878367619434
C          104.29342877427302      107.57105806777372      107.16420065366721
H          102.72577755796422      106.12969909205465      107.43905232049487
H          104.17472157067230      105.47558977263570      106.67250867919691
C          105.04135271130949      107.25963031110314      108.44666512471285
H          105.02643858040089      107.84129511518879      106.40423257650870
H          103.60858794536063      108.40341063183659      107.31886924696110
N          104.38465489026927      107.57135308283158      109.56223415241352
O          102.55793630680928      107.78514349802232      102.67466434707428
C          104.84079764111409      107.29671881762783      110.90567975004784
H          103.50036887236718      108.07005852703828      109.50495589791043
C          103.73281407952321      106.62248814735298      111.71340229458700
H          105.72324501634716      106.65637811573409      110.85177457844371
H          105.12297365973515      108.23544202583820      111.39244832831461
C          103.52288657520681      105.17307692669755      111.27732938811873
H          104.00127175707017      106.66646746055601      112.76972805620485
H          102.81180199302321      107.19239824824051      111.56527123443514
C          102.21475325628488      104.58264680900277      111.79413394564328
H          103.50850678115727      105.13256604452508      110.18576495242776
H          104.36224313773111      104.57417176229615      111.62941822567974
C          101.99632016789697      103.12167180964167      111.39331402500152
H          102.18090267558333      104.65858510850867      112.88167677323354
H          101.38821636771284      105.17938826635415      111.39749564308660
C          102.74879138588304      102.08961865746670      112.24615408859552
H          100.92911068774511      102.90404556647798      111.47809200819556
H          102.28732754830166      102.97540101569280      110.35301213171442
N          104.08582596617525      101.82698955282510      111.73712470423523
H          102.73889883731570      102.41338898637972      113.30153562347591
H          102.19796018029038      101.14516790382345      112.19092183948318
H          104.73846871215011      102.55433089364817      112.01202898563392
H          104.44302727846788      100.96802390002199      112.14019574652146
O          106.15484139856230      106.73965189826549      108.43093420544331
C          102.45717310058110      117.24815332135806      120.26706303354304
C          103.59728289812632      116.50320675060441      120.90346957269551
C          101.12091963772056      116.91671954193752      120.96035486414138
C          100.85069251190052      117.75430489836231      122.21114515788220
H          100.32463458403092      117.08852343554808      120.23388972242702
H          101.10717225290175      115.85633617479307      121.22297973414697
C          100.69934649708314      119.24822501293694      121.89229093250960
H           99.92584047073261      117.38977197359537      122.66247568655348
H          101.65384125852717      117.60779896608379      122.93430390289100
C           99.83411313816271      120.00729149288836      122.88374499972589
H          101.67717678826780      119.73573627508046      121.86850885596570
H          100.23688990922255      119.36752800680836      120.91089654845666
N          100.21311243065894      119.94208310227495      124.16046659608924
O          103.95674520776771      115.45805315875936      120.19658037057089
O          104.13506155967123      116.83504712360532      121.94597606073893
H          104.61082203240230      114.85278720613971      120.62598035175385
H          102.39781140039165      116.93423617357573      119.22617895431351
H          102.64477987688659      118.32028052042993      120.31638869203134
C           99.51672022468006      120.64280044688869      125.21600229474198
H          100.91655805296222      119.28001388479969      124.47627671982089
C          100.51484754396495      121.23412294931451      126.20804613145590
H           98.90992592428691      121.42274917556361      124.74941779802084
H           98.84914474899664      119.95023985269100      125.74174439486377
C          101.36708359706040      122.34675770219305      125.59850320580171
H           99.96997617688510      121.62194601923370      127.07000181565678
H          101.16287853954751      120.42605074723217      126.55313566929132
C          102.46606127269354      122.78595592612568      126.56342359557694
H          101.81572778757160      121.98671794804913      124.67061883359142
H          100.73368998998539      123.19948790067309      125.34668889678818
C          103.37575898490697      123.87069224703279      125.99007777599259
H          102.00927825089153      123.15371900517145      127.48450777794110
H          103.07177519246906      121.91450081096131      126.82475645202585
C          104.50584743571822      124.19272320725499      126.96890258095357
H          103.80327796279731      123.53453609491200      125.04397998467677
H          102.79778921780125      124.77515201871825      125.79340968064288
N          105.41465574331659      125.20513517516694      126.48249383279396
H          104.09216323161269      124.57891221904444      127.90337729898081
H          105.07518375628884      123.28059151430249      127.18497609053256