      -----------------------------------------------------------      
     |                   =====================                   |     
     |                           x T B                           |     
     |                   =====================                   |     
     |                         S. Grimme                         |     
     |          Mulliken Center for Theoretical Chemistry        |     
     |                    University of Bonn                     |     
      -----------------------------------------------------------      

   * xtb version 6.6.1 (8d0f1dd) compiled by 'stahn@M-Bot' on 2023-08-01

   xtb is free software: you can redistribute it and/or modify it under
   the terms of the GNU Lesser General Public License as published by
   the Free Software Foundation, either version 3 of the License, or
   (at your option) any later version.
   
   xtb is distributed in the hope that it will be useful,
   but WITHOUT ANY WARRANTY; without even the implied warranty of
   MERCHANTABILITY or FITNESS FOR A PARTICULAR PURPOSE.  See the
   GNU Lesser General Public License for more details.
   
   Cite this work as:
   * C. Bannwarth, E. Caldeweyher, S. Ehlert, A. Hansen, P. Pracht,
     J. Seibert, S. Spicher, S. Grimme, WIREs Comput. Mol. Sci., 2020, 11,
     e01493. DOI: 10.1002/wcms.1493
   
   for GFN2-xTB:
   * C. Bannwarth, S. Ehlert and S. Grimme., J. Chem. Theory Comput., 2019,
     15, 1652-1671. DOI: 10.1021/acs.jctc.8b01176
   for GFN1-xTB:
   * S. Grimme, C. Bannwarth, P. Shushkov, J. Chem. Theory Comput., 2017,
     13, 1989-2009. DOI: 10.1021/acs.jctc.7b00118
   for GFN0-xTB:
   * P. Pracht, E. Caldeweyher, S. Ehlert, S. Grimme, ChemRxiv, 2019, preprint.
     DOI: 10.26434/chemrxiv.8326202.v1
   for GFN-FF:
   * S. Spicher and S. Grimme, Angew. Chem. Int. Ed., 2020, 59, 15665-15673.
     DOI: 10.1002/anie.202004239
   
   for ALPB and GBSA implicit solvation:
   * S. Ehlert, M. Stahn, S. Spicher, S. Grimme, J. Chem. Theory Comput.,
     2021, 17, 4250-4261. DOI: 10.1021/acs.jctc.1c00471
   
   for DFT-D4:
   * E. Caldeweyher, C. Bannwarth and S. Grimme, J. Chem. Phys., 2017,
     147, 034112. DOI: 10.1063/1.4993215
   * E. Caldeweyher, S. Ehlert, A. Hansen, H. Neugebauer, S. Spicher,
     C. Bannwarth and S. Grimme, J. Chem. Phys., 2019, 150, 154122.
     DOI: 10.1063/1.5090222
   * E. Caldeweyher, J.-M. Mewes, S. Ehlert and S. Grimme, Phys. Chem. Chem. Phys.
     2020, 22, 8499-8512. DOI: 10.1039/D0CP00502A
   
   for sTDA-xTB:
   * S. Grimme and C. Bannwarth, J. Chem. Phys., 2016, 145, 054103.
     DOI: 10.1063/1.4959605
   
   in the mass-spec context:
   * V. Asgeirsson, C. Bauer and S. Grimme, Chem. Sci., 2017, 8, 4879.
     DOI: 10.1039/c7sc00601b
   * J. Koopman and S. Grimme, ACS Omega 2019, 4, 12, 15120-15133.
     DOI: 10.1021/acsomega.9b02011
   
   for metadynamics refer to:
   * S. Grimme, J. Chem. Theory Comput., 2019, 155, 2847-2862
     DOI: 10.1021/acs.jctc.9b00143
   
   for SPH calculations refer to:
   * S. Spicher and S. Grimme, J. Chem. Theory Comput., 2021, 17, 1701-1714
     DOI: 10.1021/acs.jctc.0c01306
   
   with help from (in alphabetical order)
   P. Atkinson, C. Bannwarth, F. Bohle, G. Brandenburg, E. Caldeweyher
   M. Checinski, S. Dohm, S. Ehlert, S. Ehrlich, I. Gerasimov, C. Hölzer
   A. Katbashev, J. Koopman, C. Lavigne, S. Lehtola, F. März, M. Müller,
   F. Musil, H. Neugebauer, J. Pisarek, C. Plett, P. Pracht, F. Pultar,
   J. Seibert, P. Shushkov, S. Spicher, M. Stahn, M. Steiner, T. Strunk,
   J. Stückrath, T. Rose, and J. Unsleber
   
 * started run on 2024/07/07 at 22:54:33.385     

           -------------------------------------------------
          |                Calculation Setup                |
           -------------------------------------------------

          program call               : /home/abt-grimme/AK-bin/xtb input.xyz --input input.inp --opt --gbsa water
          hostname                   : boar084.thch.uni-bonn.de
          coordinate file            : input.xyz
          omp threads                :                     8

   ID    Z sym.   atoms
    1    6 C      1-146, 294-300, 306, 309-314, 323-468, 616-622, 628,
                  631-636, 645-790, 938-944, 950, 953-958, 967-1112,
                  1260-1266, 1272, 1275-1280, 1289-1434, 1582-1588, 1594,
                  1597-1602, 1611-1756, 1904-1910, 1916, 1919-1924,
                  1933-2078, 2226-2232, 2238, 2241-2246, 2255-2400,
                  2548-2554, 2560, 2563-2568, 2577-2722, 2870-2876, 2882,
                  2885-2890, 2899-3044, 3192-3198, 3204, 3207-3212,
                  3221-3366, 3514-3520, 3526, 3529-3534, 3543-3688,
                  3836-3842, 3848, 3851-3856
    2    1 H      147-293, 301-305, 307, 308, 315-322, 469-615, 623-627, 629,
                  630, 637-644, 791-937, 945-949, 951, 952, 959-966,
                  1113-1259, 1267-1271, 1273, 1274, 1281-1288, 1435-1581,
                  1589-1593, 1595, 1596, 1603-1610, 1757-1903, 1911-1915,
                  1917, 1918, 1925-1932, 2079-2225, 2233-2237, 2239, 2240,
                  2247-2254, 2401-2547, 2555-2559, 2561, 2562, 2569-2576,
                  2723-2869, 2877-2881, 2883, 2884, 2891-2898, 3045-3191,
                  3199-3203, 3205, 3206, 3213-3220, 3367-3513, 3521-3525,
                  3527, 3528, 3535-3542, 3689-3835, 3843-3847, 3849, 3850,
                  3857-3864

molecular fragmentation (1/2 indicates fragments):
111111111111111111111111111111111111111111111111111111111111111111111111
111111111111111111111111111111111111111111111111111111111111111111111111
111111111111111111111111111111111111111111111111111111111111111111111111
111111111111111111111111111111111111111111111111111111111111111111111111
111111111111111111111111111111111122222222222222222222222222222222222222
222222222222222222222222222222222222222222222222222222222222222222222222
222222222222222222222222222222222222222222222222222222222222222222222222
222222222222222222222222222222222222222222222222222222222222222222222222
222222222222222222222222222222222222222222222222222222222222222222222222
222222222222222222222222222222222222222222222222222222222222222222222222
222222222222222222222222222222222222222222222222222222222222222222222222
222222222222222222222222222222222222222222222222222222222222222222222222
222222222222222222222222222222222222222222222222222222222222222222222222
222222222222222222222222222222222222222222222222222222222222222222222222
222222222222222222222222222222222222222222222222222222222222222222222222
222222222222222222222222222222222222222222222222222222222222222222222222
222222222222222222222222222222222222222222222222222222222222222222222222
222222222222222222222222222222222222222222222222222222222222222222222222
222222222222222222222222222222222222222222222222222222222222222222222222
222222222222222222222222222222222222222222222222222222222222222222222222
222222222222222222222222222222222222222222222222222222222222222222222222
222222222222222222222222222222222222222222222222222222222222222222222222
222222222222222222222222222222222222222222222222222222222222222222222222
222222222222222222222222222222222222222222222222222222222222222222222222
222222222222222222222222222222222222222222222222222222222222222222222222
222222222222222222222222222222222222222222222222222222222222222222222222
222222222222222222222222222222222222222222222222222222222222222222222222
222222222222222222222222222222222222222222222222222222222222222222222222
222222222222222222222222222222222222222222222222222222222222222222222222
222222222222222222222222222222222222222222222222222222222222222222222222
222222222222222222222222222222222222222222222222222222222222222222222222
222222222222222222222222222222222222222222222222222222222222222222222222
222222222222222222222222222222222222222222222222222222222222222222222222
222222222222222222222222222222222222222222222222222222222222222222222222
222222222222222222222222222222222222222222222222222222222222222222222222
222222222222222222222222222222222222222222222222222222222222222222222222
222222222222222222222222222222222222222222222222222222222222222222222222
222222222222222222222222222222222222222222222222222222222222222222222222
222222222222222222222222222222222222222222222222222222222222222222222222
222222222222222222222222222222222222222222222222222222222222222222222222
222222222222222222222222222222222222222222222222222222222222222222222222
222222222222222222222222222222222222222222222222222222222222222222222222
222222222222222222222222222222222222222222222222222222222222222222222222
222222222222222222222222222222222222222222222222222222222222222222222222
222222222222222222222222222222222222222222222222222222222222222222222222
222222222222222222222222222222222222222222222222222222222222222222222222
222222222222222222222222222222222222222222222222222222222222222222222222
222222222222222222222222222222222222222222222222222222222222222222222222
222222222222222222222222222222222222222222222222222222222222222222222222
222222222222222222222222222222222222222222222222222222222222222222222222
222222222222222222222222222222222222222222222222222222222222222222222222
222222222222222222222222222222222222222222222222222222222222222222222222
222222222222222222222222222222222222222222222222222222222222222222222222
222222222222222222222222222222222222222222222222
# atoms in fragment 1/2:   322  3542
 fragment masses (1/2) :     2085.00    22935.05
CMA distance (Bohr)    :  31.350
constraining FC (au)   :  0.0500

           -------------------------------------------------
          |                 G F N 2 - x T B                 |
           -------------------------------------------------

        Reference                      10.1021/acs.jctc.8b01176
      * Hamiltonian:
        H0-scaling (s, p, d)           1.850000    2.230000    2.230000
        zeta-weighting                 0.500000
      * Dispersion:
        s8                             2.700000
        a1                             0.520000
        a2                             5.000000
        s9                             5.000000
      * Repulsion:
        kExp                           1.500000    1.000000
        rExp                           1.000000
      * Coulomb:
        alpha                          2.000000
        third order                    shell-resolved
        anisotropic                    true
        a3                             3.000000
        a5                             4.000000
        cn-shift                       1.200000
        cn-exp                         4.000000
        max-rad                        5.000000

      * Solvation model:               GBSA
        Solvent                        water
        Parameter file                 internal GFN2-xTB/GBSA
        Dielectric constant                8.0200E+01
        Reference state                gsolv [1 M gas/solution]
        Free energy shift                  1.8574E-03 Eh       1.1656E+00 kcal/mol
        Temperature                        2.9815E+02 K
        Density                            1.0000E+00 kg/L
        Solvent mass                       1.8000E+01 g/mol
        Interaction kernel             Still
        Born radius scaling (c1)           1.5524E+00
        Born radii integrator          GBOBC
        Born offset                        2.4628E-02 a0       4.6540E-02 AA
        H-bond correction              true
        Ion screening                  false
        Surface tension                    1.0000E-05 Eh       1.5569E+01 dyn/cm
        Grid points                               230 per atom
q/qsh data taken from xtbrestart
CAMM data taken from xtbrestart

          ...................................................
          :                      SETUP                      :
          :.................................................:
          :  # basis functions                9624          :
          :  # atomic orbitals                9624          :
          :  # shells                         5784          :
          :  # electrons                      9624          :
          :  max. iterations                   250          :
          :  Hamiltonian                  GFN2-xTB          :
          :  restarted?                       true          :
          :  GBSA solvation                   true          :
          :  PC potential                    false          :
          :  electronic temp.          300.0000000     K    :
          :  accuracy                    1.0000000          :
          :  -> integral cutoff          0.2500000E+02      :
          :  -> integral neglect         0.1000000E-07      :
          :  -> SCF convergence          0.1000000E-05 Eh   :
          :  -> wf. convergence          0.1000000E-03 e    :
          :  Broyden damping             0.4000000          :
          ...................................................

 iter      E             dE          RMSdq      gap      omega  full diag
   1  -5190.4504557 -0.519045E+04  0.830E-05    3.85       0.0  T
   2  -5190.4504557 -0.866476E-08  0.688E-05    3.85      23.4  T
   3  -5190.4504557 -0.786986E-08  0.567E-05    3.85      28.4  T

   *** convergence criteria satisfied after 3 iterations ***

         #    Occupation            Energy/Eh            Energy/eV
      -------------------------------------------------------------
         1        2.0000           -0.6339710             -17.2512
       ...           ...                  ...                  ...
      4806        2.0000           -0.3648445              -9.9279
      4807        2.0000           -0.3642897              -9.9128
      4808        2.0000           -0.3640322              -9.9058
      4809        2.0000           -0.3634239              -9.8893
      4810        2.0000           -0.3633176              -9.8864
      4811        2.0000           -0.3627292              -9.8704
      4812        2.0000           -0.3625716              -9.8661 (HOMO)
      4813                         -0.2211353              -6.0174 (LUMO)
      4814                         -0.2209433              -6.0122
      4815                         -0.2204195              -5.9979
      4816                         -0.2202375              -5.9930
      4817                         -0.2199129              -5.9841
       ...                                ...                  ...
      9624                          0.6654692              18.1083
      -------------------------------------------------------------
                  HL-Gap            0.1414363 Eh            3.8487 eV
             Fermi-level           -0.2918534 Eh           -7.9417 eV

 SCC (total)                   0 d,  0 h, 16 min, 50.768 sec
 SCC setup                      ...        0 min,  2.391 sec (  0.237%)
 Dispersion                     ...        0 min,  6.801 sec (  0.673%)
 classical contributions        ...        0 min,  0.176 sec (  0.017%)
 integral evaluation            ...        0 min, 12.168 sec (  1.204%)
 iterations                     ...       10 min, 39.492 sec ( 63.268%)
 molecular gradient             ...        5 min, 21.749 sec ( 31.832%)
 printout                       ...        0 min, 27.991 sec (  2.769%)

         :::::::::::::::::::::::::::::::::::::::::::::::::::::
         ::                     SUMMARY                     ::
         :::::::::::::::::::::::::::::::::::::::::::::::::::::
         :: total energy           -5103.328984513963 Eh    ::
         :: total w/o Gsasa/hb     -5103.142704753614 Eh    ::
         :: gradient norm              0.735484669234 Eh/a0 ::
         :: HOMO-LUMO gap              3.848677627515 eV    ::
         ::.................................................::
         :: SCC energy             -5190.450455742838 Eh    ::
         :: -> isotropic ES            0.269398241815 Eh    ::
         :: -> anisotropic ES          0.829900293036 Eh    ::
         :: -> anisotropic XC          3.456763538484 Eh    ::
         :: -> dispersion             -6.931731107812 Eh    ::
         :: -> Gsolv                  -0.185437773695 Eh    ::
         ::    -> Gelec                0.000841986654 Eh    ::
         ::    -> Gsasa               -0.181107714116 Eh    ::
         ::    -> Ghb                 -0.007029489360 Eh    ::
         ::    -> Gshift               0.001857443127 Eh    ::
         :: repulsion energy          85.984411901794 Eh    ::
         :: add. restraining           0.000000000000 Eh    ::
         :: total charge              -0.000000000034 e     ::
         :::::::::::::::::::::::::::::::::::::::::::::::::::::

      ----------------------------------------------------------- 
     |              Fast Inertial Relaxation Engine              |
      ----------------------------------------------------------- 

          ...................................................
          :                      SETUP                      :
          :.................................................:
          :   energy convergence        0.5000000E-05 Eh    :
          :   grad. convergence         0.1000000E-02 Eh/a0 :
          :   optimization log               true           :
          :   writing optlog all                1     steps :
          :   Hessian reset                    20     steps :
          :   time step scaling                 5     steps :
          :   maximium step len.        1.0000000     a0    :
          :   initial time step         0.2500000     fs    :
          :   maximum time step         1.2500000     fs    :
          :   power reset thr           0.0000000     au    :
          :   alpha parameter           0.1000000           :
          :   BFGS update                   false           :
          :   preconditioning               false           :
          ...................................................

........................................................................
.............................. CYCLE    1 ..............................
........................................................................

 iter      E             dE          RMSdq      gap      omega  full diag
   1  -5190.6605477 -0.519066E+04  0.904E-03    3.87       0.0  T
   2  -5190.6605832 -0.355191E-04  0.551E-03    3.86       1.0  T
   3  -5190.6605734  0.980390E-05  0.293E-03    3.86       1.0  T
   4  -5190.6605911 -0.176462E-04  0.791E-04    3.86       2.0  T
   5  -5190.6605929 -0.180695E-05  0.274E-04    3.86       5.9  T
   6  -5190.6605930 -0.111513E-06  0.180E-04    3.86       8.9  T
   7  -5190.6605930 -0.444988E-07  0.124E-04    3.86      13.0  T
     SCC iter.                  ...       24 min, 40.236 sec
     gradient                   ...        5 min, 30.730 sec
 * total energy  : -5103.3896142 Eh     change    :  -0.6062969E-01 Eh
   gradient norm :     0.6758868 Eh/a0  converged?    E=F G=F D=F
   time step     :     0.2500000 fs     power     :   0.3081952E-05
   step length   :     0.0861972 a0     speed     :   0.8340046E-02

........................................................................
.............................. CYCLE    2 ..............................
........................................................................

 iter      E             dE          RMSdq      gap      omega  full diag
   1  -5190.9698748 -0.519097E+04  0.132E-02    3.89       0.0  T
   2  -5190.9699503 -0.755024E-04  0.802E-03    3.88       1.0  T
   3  -5190.9699299  0.204217E-04  0.423E-03    3.89       1.0  T
   4  -5190.9699666 -0.366781E-04  0.115E-03    3.88       1.4  T
   5  -5190.9699704 -0.384587E-05  0.405E-04    3.88       4.0  T
   6  -5190.9699707 -0.234720E-06  0.271E-04    3.88       5.9  T
   7  -5190.9699708 -0.101347E-06  0.186E-04    3.88       8.6  T
     SCC iter.                  ...       24 min, 39.997 sec
     gradient                   ...        5 min, 24.893 sec
 * total energy  : -5103.4691117 Eh     change    :  -0.7949752E-01 Eh
   gradient norm :     0.5934956 Eh/a0  converged?    E=F G=F D=F
   time step     :     0.2500000 fs     power     :   0.3934019E-05
   step length   :     0.1257039 a0     speed     :   0.1216253E-01

........................................................................
.............................. CYCLE    3 ..............................
........................................................................

 iter      E             dE          RMSdq      gap      omega  full diag
   1  -5191.3711540 -0.519137E+04  0.167E-02    3.91       0.0  T
   2  -5191.3712750 -0.121071E-03  0.102E-02    3.91       1.0  T
   3  -5191.3712425  0.325555E-04  0.530E-03    3.91       1.0  T
   4  -5191.3713000 -0.575345E-04  0.146E-03    3.91       1.1  T
   5  -5191.3713062 -0.621124E-05  0.513E-04    3.91       3.1  T
   6  -5191.3713066 -0.362877E-06  0.347E-04    3.90       4.6  T
   7  -5191.3713068 -0.167811E-06  0.238E-04    3.90       6.7  T
     SCC iter.                  ...       24 min, 37.379 sec
     gradient                   ...        5 min, 31.648 sec
 * total energy  : -5103.5554641 Eh     change    :  -0.8635240E-01 Eh
   gradient norm :     0.4962735 Eh/a0  converged?    E=F G=F D=F
   time step     :     0.2500000 fs     power     :   0.4132276E-05
   step length   :     0.1602640 a0     speed     :   0.1550640E-01

........................................................................
.............................. CYCLE    4 ..............................
........................................................................

 iter      E             dE          RMSdq      gap      omega  full diag
   1  -5191.8564500 -0.519186E+04  0.195E-02    3.93       0.0  T
   2  -5191.8566125 -0.162456E-03  0.119E-02    3.93       1.0  T
   3  -5191.8565684  0.441016E-04  0.607E-03    3.93       1.0  T
   4  -5191.8566441 -0.756935E-04  0.169E-03    3.93       1.0  T
   5  -5191.8566525 -0.844523E-05  0.595E-04    3.92       2.7  T
   6  -5191.8566530 -0.460647E-06  0.407E-04    3.92       4.0  T
   7  -5191.8566532 -0.233769E-06  0.278E-04    3.92       5.8  T
     SCC iter.                  ...       24 min, 41.654 sec
     gradient                   ...        5 min, 22.225 sec
 * total energy  : -5103.6367664 Eh     change    :  -0.8130231E-01 Eh
   gradient norm :     0.3985083 Eh/a0  converged?    E=F G=F D=F
   time step     :     0.2500000 fs     power     :   0.3719640E-05
   step length   :     0.1886171 a0     speed     :   0.1824971E-01

........................................................................
.............................. CYCLE    5 ..............................
........................................................................

 iter      E             dE          RMSdq      gap      omega  full diag
   1  -5192.4174148 -0.519242E+04  0.214E-02    3.94       0.0  T
   2  -5192.4176031 -0.188232E-03  0.130E-02    3.94       1.0  T
   3  -5192.4175502  0.528422E-04  0.645E-03    3.94       1.0  T
   4  -5192.4176368 -0.865760E-04  0.182E-03    3.94       1.0  T
   5  -5192.4176468 -0.100122E-04  0.644E-04    3.94       2.5  T
   6  -5192.4176473 -0.495258E-06  0.445E-04    3.94       3.6  T
   7  -5192.4176476 -0.285280E-06  0.302E-04    3.94       5.3  T
     SCC iter.                  ...       24 min, 46.319 sec
     gradient                   ...        5 min, 25.797 sec
 * total energy  : -5103.7039500 Eh     change    :  -0.6718359E-01 Eh
   gradient norm :     0.3226913 Eh/a0  converged?    E=F G=F D=F
   time step     :     0.2500000 fs     power     :   0.2886047E-05
   step length   :     0.2096689 a0     speed     :   0.2028659E-01

........................................................................
.............................. CYCLE    6 ..............................
........................................................................

 iter      E             dE          RMSdq      gap      omega  full diag
   1  -5193.1105427 -0.519311E+04  0.244E-02    3.95       0.0  T
   2  -5193.1107704 -0.227637E-03  0.147E-02    3.95       1.0  T
   3  -5193.1107021  0.682446E-04  0.697E-03    3.95       1.0  T
   4  -5193.1108063 -0.104181E-03  0.201E-03    3.95       1.0  T
   5  -5193.1108189 -0.125861E-04  0.716E-04    3.95       2.2  T
   6  -5193.1108194 -0.535763E-06  0.498E-04    3.95       3.2  T
   7  -5193.1108198 -0.365028E-06  0.332E-04    3.95       4.8  T
     SCC iter.                  ...       24 min, 37.293 sec
     gradient                   ...        5 min, 27.162 sec
 * total energy  : -5103.7573925 Eh     change    :  -0.5344249E-01 Eh
   gradient norm :     0.2937090 Eh/a0  converged?    E=F G=F D=F
   time step     :     0.2750000 fs     power     :   0.1837533E-05
   step length   :     0.2460190 a0     speed     :   0.2163969E-01

........................................................................
.............................. CYCLE    7 ..............................
........................................................................

 iter      E             dE          RMSdq      gap      omega  full diag
   1  -5193.9275638 -0.519393E+04  0.259E-02    3.96       0.0  T
   2  -5193.9277849 -0.221038E-03  0.155E-02    3.96       1.0  T
   3  -5193.9277132  0.716722E-04  0.668E-03    3.96       1.0  T
   4  -5193.9278133 -0.100097E-03  0.201E-03    3.96       1.0  T
   5  -5193.9278262 -0.129626E-04  0.735E-04    3.96       2.2  T
   6  -5193.9278267 -0.471730E-06  0.505E-04    3.96       3.2  T
   7  -5193.9278271 -0.398255E-06  0.328E-04    3.96       4.9  T
     SCC iter.                  ...       24 min, 35.284 sec
     gradient                   ...        5 min, 28.970 sec
 * total energy  : -5103.7954121 Eh     change    :  -0.3801963E-01 Eh
   gradient norm :     0.3216696 Eh/a0  converged?    E=F G=F D=F
   time step     :     0.3025000 fs     power     :   0.1001925E-05
   step length   :     0.2748046 a0     speed     :   0.2197423E-01

........................................................................
.............................. CYCLE    8 ..............................
........................................................................

 iter      E             dE          RMSdq      gap      omega  full diag
   1  -5194.8335402 -0.519483E+04  0.258E-02    3.97       0.0  T
   2  -5194.8337055 -0.165281E-03  0.153E-02    3.97       1.0  T
   3  -5194.8336547  0.507931E-04  0.536E-03    3.97       1.0  T
   4  -5194.8337208 -0.661222E-04  0.176E-03    3.97       1.0  T
   5  -5194.8337309 -0.100657E-04  0.691E-04    3.97       2.3  T
   6  -5194.8337313 -0.361601E-06  0.440E-04    3.97       3.7  T
   7  -5194.8337316 -0.346206E-06  0.276E-04    3.97       5.8  T
     SCC iter.                  ...       24 min, 38.513 sec
     gradient                   ...        5 min, 25.092 sec
 * total energy  : -5103.8260220 Eh     change    :  -0.3060989E-01 Eh
   gradient norm :     0.3639337 Eh/a0  converged?    E=F G=F D=F
   time step     :     0.3327500 fs     power     :   0.7220467E-06
   step length   :     0.2952857 a0     speed     :   0.2146542E-01

........................................................................
.............................. CYCLE    9 ..............................
........................................................................

 iter      E             dE          RMSdq      gap      omega  full diag
   1  -5195.7853039 -0.519579E+04  0.252E-02    3.99       0.0  T
   2  -5195.7854035 -0.996090E-04  0.148E-02    3.98       1.0  T
   3  -5195.7853881  0.154093E-04  0.353E-03    3.99       1.0  T
   4  -5195.7854123 -0.242403E-04  0.121E-03    3.98       1.3  T
   5  -5195.7854162 -0.382502E-05  0.599E-04    3.98       2.7  T
   6  -5195.7854164 -0.258139E-06  0.323E-04    3.98       5.0  T
   7  -5195.7854167 -0.238161E-06  0.202E-04    3.98       8.0  T
     SCC iter.                  ...       24 min, 40.472 sec
     gradient                   ...        5 min, 26.949 sec
 * total energy  : -5103.8621141 Eh     change    :  -0.3609204E-01 Eh
   gradient norm :     0.3753803 Eh/a0  converged?    E=F G=F D=F
   time step     :     0.3660250 fs     power     :   0.9409674E-06
   step length   :     0.3156281 a0     speed     :   0.2085835E-01

........................................................................
.............................. CYCLE   10 ..............................
........................................................................

 iter      E             dE          RMSdq      gap      omega  full diag
   1  -5196.7378296 -0.519674E+04  0.259E-02    4.00       0.0  T
   2  -5196.7379061 -0.764986E-04  0.151E-02    4.00       1.0  T
   3  -5196.7378710  0.351013E-04  0.420E-03    4.00       1.0  T
   4  -5196.7379195 -0.485401E-04  0.107E-03    4.00       1.5  T
   5  -5196.7379221 -0.262705E-05  0.510E-04    4.00       3.2  T
   6  -5196.7379223 -0.203978E-06  0.300E-04    4.00       5.4  T
   7  -5196.7379225 -0.136942E-06  0.162E-04    4.00       9.9  T
     SCC iter.                  ...       24 min, 44.624 sec
     gradient                   ...        5 min, 25.433 sec
 * total energy  : -5103.9104289 Eh     change    :  -0.4831486E-01 Eh
   gradient norm :     0.3314955 Eh/a0  converged?    E=F G=F D=F
   time step     :     0.4026275 fs     power     :   0.1211800E-05
   step length   :     0.3451085 a0     speed     :   0.2073325E-01

........................................................................
.............................. CYCLE   11 ..............................
........................................................................

 iter      E             dE          RMSdq      gap      omega  full diag
   1  -5197.6414751 -0.519764E+04  0.287E-02    4.01       0.0  T
   2  -5197.6416071 -0.131985E-03  0.170E-02    4.01       1.0  T
   3  -5197.6414974  0.109664E-03  0.696E-03    4.00       1.0  T
   4  -5197.6416448 -0.147361E-03  0.137E-03    4.00       1.2  T
   5  -5197.6416491 -0.434604E-05  0.579E-04    4.00       2.8  T
   6  -5197.6416498 -0.723367E-06  0.282E-04    4.00       5.7  T
   7  -5197.6416499 -0.415430E-07  0.133E-04    4.00      12.1  T
     SCC iter.                  ...       24 min, 37.816 sec
     gradient                   ...        5 min, 31.580 sec
 * total energy  : -5103.9604997 Eh     change    :  -0.5007081E-01 Eh
   gradient norm :     0.2346834 Eh/a0  converged?    E=F G=F D=F
   time step     :     0.4428903 fs     power     :   0.9349591E-06
   step length   :     0.3858237 a0     speed     :   0.2107210E-01

........................................................................
.............................. CYCLE   12 ..............................
........................................................................

 iter      E             dE          RMSdq      gap      omega  full diag
   1  -5198.4395643 -0.519844E+04  0.323E-02    4.00       0.0  T
   2  -5198.4398061 -0.241792E-03  0.194E-02    4.00       1.0  T
   3  -5198.4396414  0.164677E-03  0.926E-03    3.99       1.0  T
   4  -5198.4398793 -0.237903E-03  0.179E-03    4.00       1.0  T
   5  -5198.4398876 -0.821753E-05  0.679E-04    4.00       2.4  T
   6  -5198.4398885 -0.970046E-06  0.354E-04    4.00       4.5  T
   7  -5198.4398886 -0.893015E-07  0.208E-04    4.00       7.7  T
     SCC iter.                  ...       24 min, 39.361 sec
     gradient                   ...        5 min, 23.186 sec
 * total energy  : -5103.9844242 Eh     change    :  -0.2392446E-01 Eh
   gradient norm :     0.1691243 Eh/a0  converged?    E=F G=F D=F
   time step     :     0.4871793 fs     power     :  -0.1395817E-06
   step length   :     0.4251183 a0     speed     :   0.2110747E-01

........................................................................
.............................. CYCLE   13 ..............................
........................................................................
 * reset velocities

 iter      E             dE          RMSdq      gap      omega  full diag
   1  -5198.4265286 -0.519843E+04  0.915E-04    4.00       0.0  T
   2  -5198.4265290 -0.409338E-06  0.551E-04    4.00       2.9  T
   3  -5198.4265290  0.118007E-07  0.259E-04    4.00       6.2  T
     SCC iter.                  ...       10 min, 36.849 sec
     gradient                   ...        5 min, 23.375 sec
 * total energy  : -5103.9859919 Eh     change    :  -0.1567736E-02 Eh
   gradient norm :     0.1641536 Eh/a0  converged?    E=F G=F D=F
   time step     :     0.2435896 fs     power     :   0.8411830E-07
   step length   :     0.0094088 a0     speed     :   0.9343068E-03

........................................................................
.............................. CYCLE   14 ..............................
........................................................................

 iter      E             dE          RMSdq      gap      omega  full diag
   1  -5198.4000770 -0.519840E+04  0.180E-03    4.00       0.0  T
   2  -5198.4000784 -0.144367E-05  0.108E-03    4.00       1.5  T
   3  -5198.4000783  0.914060E-07  0.453E-04    4.00       3.5  T
   4  -5198.4000785 -0.229399E-06  0.133E-04    4.00      12.1  T
     SCC iter.                  ...       14 min,  5.393 sec
     gradient                   ...        5 min, 27.278 sec
 * total energy  : -5103.9889449 Eh     change    :  -0.2952966E-02 Eh
   gradient norm :     0.1546105 Eh/a0  converged?    E=F G=F D=F
   time step     :     0.2435896 fs     power     :   0.1559380E-06
   step length   :     0.0185401 a0     speed     :   0.1841060E-02

........................................................................
.............................. CYCLE   15 ..............................
........................................................................

 iter      E             dE          RMSdq      gap      omega  full diag
   1  -5198.3610529 -0.519836E+04  0.258E-03    4.00       0.0  T
   2  -5198.3610560 -0.305991E-05  0.156E-03    4.00       1.0  T
   3  -5198.3610557  0.261912E-06  0.701E-04    4.00       2.3  T
   4  -5198.3610563 -0.621858E-06  0.202E-04    4.00       8.0  T
     SCC iter.                  ...       14 min,  8.098 sec
     gradient                   ...        5 min, 23.941 sec
 * total energy  : -5103.9929502 Eh     change    :  -0.4005310E-02 Eh
   gradient norm :     0.1414351 Eh/a0  converged?    E=F G=F D=F
   time step     :     0.2435896 fs     power     :   0.2079445E-06
   step length   :     0.0271326 a0     speed     :   0.2694313E-02

........................................................................
.............................. CYCLE   16 ..............................
........................................................................

 iter      E             dE          RMSdq      gap      omega  full diag
   1  -5198.3102182 -0.519831E+04  0.330E-03    4.00       0.0  T
   2  -5198.3102231 -0.487964E-05  0.199E-03    4.00       1.0  T
   3  -5198.3102226  0.473676E-06  0.885E-04    4.00       1.8  T
   4  -5198.3102237 -0.103372E-05  0.261E-04    4.00       6.2  T
   5  -5198.3102238 -0.176708E-06  0.896E-05    4.00      18.0  T
     SCC iter.                  ...       17 min, 38.325 sec
     gradient                   ...        5 min, 23.161 sec
 * total energy  : -5103.9975850 Eh     change    :  -0.4634766E-02 Eh
   gradient norm :     0.1260143 Eh/a0  converged?    E=F G=F D=F
   time step     :     0.2435896 fs     power     :   0.2362234E-06
   step length   :     0.0349620 a0     speed     :   0.3471784E-02

........................................................................
.............................. CYCLE   17 ..............................
........................................................................

 iter      E             dE          RMSdq      gap      omega  full diag
   1  -5198.2485951 -0.519825E+04  0.391E-03    4.00       0.0  T
   2  -5198.2486018 -0.671203E-05  0.234E-03    4.00       1.0  T
   3  -5198.2486012  0.621728E-06  0.102E-03    4.00       1.6  T
   4  -5198.2486025 -0.134242E-05  0.303E-04    4.00       5.3  T
   5  -5198.2486028 -0.237321E-06  0.104E-04    4.00      15.4  T
   6  -5198.2486028 -0.117716E-07  0.700E-05    4.00      23.0  T
     SCC iter.                  ...       21 min,  5.705 sec
     gradient                   ...        5 min, 24.258 sec
 * total energy  : -5104.0024132 Eh     change    :  -0.4828177E-02 Eh
   gradient norm :     0.1102499 Eh/a0  converged?    E=F G=F D=F
   time step     :     0.2435896 fs     power     :   0.2412329E-06
   step length   :     0.0418483 a0     speed     :   0.4155607E-02

........................................................................
.............................. CYCLE   18 ..............................
........................................................................

 iter      E             dE          RMSdq      gap      omega  full diag
   1  -5198.1775532 -0.519818E+04  0.438E-03    4.00       0.0  T
   2  -5198.1775612 -0.801462E-05  0.263E-03    4.00       1.0  T
   3  -5198.1775603  0.974714E-06  0.111E-03    4.00       1.4  T
   4  -5198.1775621 -0.179108E-05  0.347E-04    4.00       4.6  T
   5  -5198.1775624 -0.331921E-06  0.114E-04    4.00      14.1  T
   6  -5198.1775624 -0.129376E-07  0.744E-05    4.00      21.6  T
     SCC iter.                  ...       21 min,  4.654 sec
     gradient                   ...        5 min, 25.790 sec
 * total energy  : -5104.0070667 Eh     change    :  -0.4653515E-02 Eh
   gradient norm :     0.0964423 Eh/a0  converged?    E=F G=F D=F
   time step     :     0.2435896 fs     power     :   0.2278330E-06
   step length   :     0.0476551 a0     speed     :   0.4732232E-02

........................................................................
.............................. CYCLE   19 ..............................
........................................................................

 iter      E             dE          RMSdq      gap      omega  full diag
   1  -5198.0902781 -0.519809E+04  0.523E-03    4.00       0.0  T
   2  -5198.0902886 -0.104783E-04  0.314E-03    4.00       1.0  T
   3  -5198.0902869  0.169449E-05  0.128E-03    4.00       1.3  T
   4  -5198.0902897 -0.272494E-05  0.413E-04    4.00       3.9  T
   5  -5198.0902901 -0.494254E-06  0.131E-04    4.00      12.3  T
   6  -5198.0902902 -0.144191E-07  0.832E-05    4.00      19.3  T
     SCC iter.                  ...       21 min,  6.652 sec
     gradient                   ...        5 min, 26.128 sec
 * total energy  : -5104.0117324 Eh     change    :  -0.4665754E-02 Eh
   gradient norm :     0.0859570 Eh/a0  converged?    E=F G=F D=F
   time step     :     0.2679486 fs     power     :   0.2009461E-06
   step length   :     0.0580608 a0     speed     :   0.5241395E-02

........................................................................
.............................. CYCLE   20 ..............................
........................................................................

 iter      E             dE          RMSdq      gap      omega  full diag
   1  -5197.9872555 -0.519799E+04  0.606E-03    4.00       0.0  T
   2  -5197.9872676 -0.121177E-04  0.363E-03    4.00       1.0  T
   3  -5197.9872647  0.291281E-05  0.142E-03    4.00       1.1  T
   4  -5197.9872688 -0.413667E-05  0.464E-04    4.00       3.5  T
   5  -5197.9872695 -0.661556E-06  0.143E-04    4.00      11.2  T
   6  -5197.9872695 -0.126520E-07  0.877E-05    4.00      18.3  T
     SCC iter.                  ...       21 min,  7.259 sec
     gradient                   ...        5 min, 26.307 sec
 * total energy  : -5104.0162017 Eh     change    :  -0.4469279E-02 Eh
   gradient norm :     0.0812162 Eh/a0  converged?    E=F G=F D=F
   time step     :     0.2947435 fs     power     :   0.1697018E-06
   step length   :     0.0688158 a0     speed     :   0.5647535E-02
 * RMSD in coord.:     0.0409345 a0     energy gain  -0.6872172E+00 Eh

........................................................................
.............................. CYCLE   21 ..............................
........................................................................

 iter      E             dE          RMSdq      gap      omega  full diag
   1  -5197.8995645 -0.519790E+04  0.519E-03    4.00       0.0  T
   2  -5197.8995716 -0.714399E-05  0.311E-03    4.00       1.0  T
   3  -5197.8995689  0.275358E-05  0.116E-03    4.00       1.4  T
   4  -5197.8995725 -0.360980E-05  0.368E-04    4.00       4.4  T
   5  -5197.8995729 -0.429864E-06  0.116E-04    4.00      13.9  T
   6  -5197.8995729 -0.577802E-08  0.679E-05    4.00      23.7  T
     SCC iter.                  ...       21 min,  9.325 sec
     gradient                   ...        5 min, 23.244 sec
 * total energy  : -5104.0195198 Eh     change    :  -0.3318089E-02 Eh
   gradient norm :     0.0809000 Eh/a0  converged?    E=F G=F D=F
   time step     :     0.2500000 fs     power     :   0.1537591E-06
   step length   :     0.0601894 a0     speed     :   0.5823644E-02

........................................................................
.............................. CYCLE   22 ..............................
........................................................................

 iter      E             dE          RMSdq      gap      omega  full diag
   1  -5197.8154496 -0.519782E+04  0.520E-03    4.00       0.0  T
   2  -5197.8154550 -0.531056E-05  0.312E-03    4.00       1.0  T
   3  -5197.8154515  0.345927E-05  0.112E-03    4.00       1.4  T
   4  -5197.8154559 -0.435197E-05  0.313E-04    4.00       5.1  T
   5  -5197.8154562 -0.311092E-06  0.104E-04    4.00      15.5  T
   6  -5197.8154562 -0.181899E-08  0.573E-05    4.00      28.1  T
     SCC iter.                  ...       21 min,  9.713 sec
     gradient                   ...        5 min, 33.279 sec
 * total energy  : -5104.0226597 Eh     change    :  -0.3139863E-02 Eh
   gradient norm :     0.0809299 Eh/a0  converged?    E=F G=F D=F
   time step     :     0.2500000 fs     power     :   0.1486798E-06
   step length   :     0.0611858 a0     speed     :   0.5920055E-02

........................................................................
.............................. CYCLE   23 ..............................
........................................................................

 iter      E             dE          RMSdq      gap      omega  full diag
   1  -5197.7381418 -0.519774E+04  0.522E-03    4.00       0.0  T
   2  -5197.7381456 -0.372427E-05  0.313E-03    4.00       1.0  T
   3  -5197.7381415  0.405249E-05  0.110E-03    4.00       1.5  T
   4  -5197.7381465 -0.500554E-05  0.251E-04    4.00       6.4  T
   5  -5197.7381467 -0.187343E-06  0.947E-05    4.00      17.0  T
   6  -5197.7381467 -0.998625E-09  0.513E-05    4.00      31.4  T
     SCC iter.                  ...       21 min,  3.871 sec
     gradient                   ...        5 min, 23.151 sec
 * total energy  : -5104.0257808 Eh     change    :  -0.3121101E-02 Eh
   gradient norm :     0.0796445 Eh/a0  converged?    E=F G=F D=F
   time step     :     0.2500000 fs     power     :   0.1508470E-06
   step length   :     0.0618629 a0     speed     :   0.5985568E-02

........................................................................
.............................. CYCLE   24 ..............................
........................................................................

 iter      E             dE          RMSdq      gap      omega  full diag
   1  -5197.6700568 -0.519767E+04  0.526E-03    4.00       0.0  T
   2  -5197.6700594 -0.259799E-05  0.315E-03    4.00       1.0  T
   3  -5197.6700551  0.433259E-05  0.109E-03    4.00       1.5  T
   4  -5197.6700604 -0.529909E-05  0.204E-04    4.00       7.9  T
   5  -5197.6700605 -0.110348E-06  0.905E-05    4.00      17.8  T
   6  -5197.6700605 -0.286855E-08  0.498E-05    4.00      32.3  T
     SCC iter.                  ...       21 min,  6.288 sec
     gradient                   ...        5 min, 30.063 sec
 * total energy  : -5104.0289550 Eh     change    :  -0.3174249E-02 Eh
   gradient norm :     0.0767332 Eh/a0  converged?    E=F G=F D=F
   time step     :     0.2500000 fs     power     :   0.1553196E-06
   step length   :     0.0625683 a0     speed     :   0.6053820E-02

........................................................................
.............................. CYCLE   25 ..............................
........................................................................

 iter      E             dE          RMSdq      gap      omega  full diag
   1  -5197.6128589 -0.519761E+04  0.531E-03    3.99       0.0  T
   2  -5197.6128608 -0.190820E-05  0.317E-03    4.00       1.0  T
   3  -5197.6128566  0.416954E-05  0.105E-03    3.99       1.5  T
   4  -5197.6128617 -0.507170E-05  0.180E-04    3.99       8.9  T
   5  -5197.6128618 -0.766840E-07  0.929E-05    3.99      17.3  T
   6  -5197.6128618 -0.728414E-08  0.533E-05    3.99      30.2  T
     SCC iter.                  ...       21 min,  4.893 sec
     gradient                   ...        5 min, 22.885 sec
 * total energy  : -5104.0321763 Eh     change    :  -0.3221338E-02 Eh
   gradient norm :     0.0727385 Eh/a0  converged?    E=F G=F D=F
   time step     :     0.2500000 fs     power     :   0.1583995E-06
   step length   :     0.0634410 a0     speed     :   0.6138260E-02

........................................................................
.............................. CYCLE   26 ..............................
........................................................................

 iter      E             dE          RMSdq      gap      omega  full diag
   1  -5197.5632906 -0.519756E+04  0.590E-03    3.99       0.0  T
   2  -5197.5632924 -0.183901E-05  0.352E-03    3.99       1.0  T
   3  -5197.5632881  0.429530E-05  0.106E-03    3.99       1.5  T
   4  -5197.5632934 -0.522230E-05  0.189E-04    3.99       8.5  T
   5  -5197.5632934 -0.771624E-07  0.110E-04    3.99      14.6  T
   6  -5197.5632935 -0.168611E-07  0.684E-05    3.99      23.5  T
     SCC iter.                  ...       21 min,  7.176 sec
     gradient                   ...        5 min, 21.555 sec
 * total energy  : -5104.0357261 Eh     change    :  -0.3549800E-02 Eh
   gradient norm :     0.0680662 Eh/a0  converged?    E=F G=F D=F
   time step     :     0.2750000 fs     power     :   0.1574514E-06
   step length   :     0.0712588 a0     speed     :   0.6267882E-02

........................................................................
.............................. CYCLE   27 ..............................
........................................................................

 iter      E             dE          RMSdq      gap      omega  full diag
   1  -5197.5244135 -0.519752E+04  0.650E-03    3.99       0.0  T
   2  -5197.5244154 -0.186365E-05  0.386E-03    3.99       1.0  T
   3  -5197.5244118  0.364501E-05  0.996E-04    3.99       1.6  T
   4  -5197.5244162 -0.449033E-05  0.208E-04    3.99       7.7  T
   5  -5197.5244163 -0.886439E-07  0.131E-04    3.99      12.2  T
   6  -5197.5244164 -0.273403E-07  0.889E-05    3.99      18.1  T
     SCC iter.                  ...       21 min,  4.635 sec
     gradient                   ...        5 min, 23.743 sec
 * total energy  : -5104.0395398 Eh     change    :  -0.3813613E-02 Eh
   gradient norm :     0.0636525 Eh/a0  converged?    E=F G=F D=F
   time step     :     0.3025000 fs     power     :   0.1521324E-06
   step length   :     0.0804059 a0     speed     :   0.6429509E-02

........................................................................
.............................. CYCLE   28 ..............................
........................................................................

 iter      E             dE          RMSdq      gap      omega  full diag
   1  -5197.4992138 -0.519750E+04  0.705E-03    3.99       0.0  T
   2  -5197.4992157 -0.188429E-05  0.417E-03    3.99       1.0  T
   3  -5197.4992134  0.233952E-05  0.853E-04    3.99       1.9  T
   4  -5197.4992164 -0.304998E-05  0.231E-04    3.98       7.0  T
   5  -5197.4992165 -0.103808E-06  0.150E-04    3.98      10.7  T
   6  -5197.4992166 -0.371847E-07  0.104E-04    3.98      15.4  T
     SCC iter.                  ...       21 min,  7.893 sec
     gradient                   ...        5 min, 27.352 sec
 * total energy  : -5104.0435496 Eh     change    :  -0.4009855E-02 Eh
   gradient norm :     0.0600061 Eh/a0  converged?    E=F G=F D=F
   time step     :     0.3327500 fs     power     :   0.1438267E-06
   step length   :     0.0908271 a0     speed     :   0.6602561E-02

........................................................................
.............................. CYCLE   29 ..............................
........................................................................

 iter      E             dE          RMSdq      gap      omega  full diag
   1  -5197.4901598 -0.519749E+04  0.747E-03    3.98       0.0  T
   2  -5197.4901618 -0.192621E-05  0.440E-03    3.98       1.0  T
   3  -5197.4901602  0.157555E-05  0.795E-04    3.98       2.0  T
   4  -5197.4901625 -0.228320E-05  0.242E-04    3.98       6.7  T
   5  -5197.4901626 -0.925174E-07  0.165E-04    3.98       9.8  T
   6  -5197.4901626 -0.491927E-07  0.109E-04    3.98      14.8  T
     SCC iter.                  ...       21 min,  5.261 sec
     gradient                   ...        5 min, 23.775 sec
 * total energy  : -5104.0477110 Eh     change    :  -0.4161371E-02 Eh
   gradient norm :     0.0572025 Eh/a0  converged?    E=F G=F D=F
   time step     :     0.3660250 fs     power     :   0.1343352E-06
   step length   :     0.1024365 a0     speed     :   0.6769540E-02

........................................................................
.............................. CYCLE   30 ..............................
........................................................................

 iter      E             dE          RMSdq      gap      omega  full diag
   1  -5197.4988401 -0.519750E+04  0.771E-03    3.98       0.0  T
   2  -5197.4988422 -0.212150E-05  0.455E-03    3.98       1.0  T
   3  -5197.4988397  0.248597E-05  0.970E-04    3.97       1.7  T
   4  -5197.4988431 -0.341230E-05  0.238E-04    3.97       6.8  T
   5  -5197.4988432 -0.721775E-07  0.169E-04    3.97       9.5  T
   6  -5197.4988433 -0.525370E-07  0.106E-04    3.97      15.2  T
     SCC iter.                  ...       21 min,  7.252 sec
     gradient                   ...        5 min, 28.338 sec
 * total energy  : -5104.0520169 Eh     change    :  -0.4305867E-02 Eh
   gradient norm :     0.0557886 Eh/a0  converged?    E=F G=F D=F
   time step     :     0.4026275 fs     power     :   0.1255264E-06
   step length   :     0.1151956 a0     speed     :   0.6920664E-02

........................................................................
.............................. CYCLE   31 ..............................
........................................................................

 iter      E             dE          RMSdq      gap      omega  full diag
   1  -5197.5258412 -0.519753E+04  0.775E-03    3.97       0.0  T
   2  -5197.5258436 -0.242248E-05  0.460E-03    3.97       1.0  T
   3  -5197.5258398  0.383553E-05  0.113E-03    3.97       1.4  T
   4  -5197.5258447 -0.497191E-05  0.227E-04    3.97       7.1  T
   5  -5197.5258448 -0.661330E-07  0.156E-04    3.97      10.3  T
   6  -5197.5258448 -0.401815E-07  0.969E-05    3.97      16.6  T
     SCC iter.                  ...       21 min,  7.425 sec
     gradient                   ...        5 min, 24.707 sec
 * total energy  : -5104.0565513 Eh     change    :  -0.4534469E-02 Eh
   gradient norm :     0.0563813 Eh/a0  converged?    E=F G=F D=F
   time step     :     0.4428903 fs     power     :   0.1207582E-06
   step length   :     0.1291435 a0     speed     :   0.7053287E-02

........................................................................
.............................. CYCLE   32 ..............................
........................................................................

 iter      E             dE          RMSdq      gap      omega  full diag
   1  -5197.5711998 -0.519757E+04  0.772E-03    3.97       0.0  T
   2  -5197.5712023 -0.250136E-05  0.460E-03    3.97       1.0  T
   3  -5197.5711991  0.325514E-05  0.101E-03    3.97       1.6  T
   4  -5197.5712033 -0.417824E-05  0.212E-04    3.97       7.6  T
   5  -5197.5712033 -0.661130E-07  0.129E-04    3.97      12.5  T
   6  -5197.5712033 -0.212858E-07  0.788E-05    3.97      20.4  T
     SCC iter.                  ...       21 min,  6.174 sec
     gradient                   ...        5 min, 22.026 sec
 * total energy  : -5104.0615535 Eh     change    :  -0.5002184E-02 Eh
   gradient norm :     0.0567464 Eh/a0  converged?    E=F G=F D=F
   time step     :     0.4871793 fs     power     :   0.1232176E-06
   step length   :     0.1446516 a0     speed     :   0.7182070E-02

........................................................................
.............................. CYCLE   33 ..............................
........................................................................

 iter      E             dE          RMSdq      gap      omega  full diag
   1  -5197.6358337 -0.519764E+04  0.796E-03    3.97       0.0  T
   2  -5197.6358364 -0.274924E-05  0.475E-03    3.97       1.0  T
   3  -5197.6358345  0.194923E-05  0.796E-04    3.97       2.0  T
   4  -5197.6358370 -0.253296E-05  0.227E-04    3.97       7.1  T
   5  -5197.6358371 -0.117385E-06  0.107E-04    3.97      15.1  T
   6  -5197.6358371 -0.820273E-08  0.534E-05    3.97      30.1  T
     SCC iter.                  ...       21 min,  4.085 sec
     gradient                   ...        5 min, 24.735 sec
 * total energy  : -5104.0672485 Eh     change    :  -0.5695032E-02 Eh
   gradient norm :     0.0523838 Eh/a0  converged?    E=F G=F D=F
   time step     :     0.5358972 fs     power     :   0.1279330E-06
   step length   :     0.1628305 a0     speed     :   0.7349694E-02

........................................................................
.............................. CYCLE   34 ..............................
........................................................................

 iter      E             dE          RMSdq      gap      omega  full diag
   1  -5197.7233302 -0.519772E+04  0.872E-03    3.97       0.0  T
   2  -5197.7233345 -0.423138E-05  0.522E-03    3.97       1.0  T
   3  -5197.7233266  0.781339E-05  0.141E-03    3.97       1.1  T
   4  -5197.7233359 -0.929128E-05  0.264E-04    3.97       6.1  T
   5  -5197.7233361 -0.196283E-06  0.119E-04    3.97      13.5  T
   6  -5197.7233361 -0.815453E-08  0.563E-05    3.97      28.6  T
     SCC iter.                  ...       21 min, 15.184 sec
     gradient                   ...        5 min, 28.678 sec
 * total energy  : -5104.0733903 Eh     change    :  -0.6141770E-02 Eh
   gradient norm :     0.0438611 Eh/a0  converged?    E=F G=F D=F
   time step     :     0.5894869 fs     power     :   0.1207245E-06
   step length   :     0.1848776 a0     speed     :   0.7586215E-02

........................................................................
.............................. CYCLE   35 ..............................
........................................................................

 iter      E             dE          RMSdq      gap      omega  full diag
   1  -5197.8403685 -0.519784E+04  0.955E-03    3.97       0.0  T
   2  -5197.8403746 -0.610038E-05  0.578E-03    3.97       1.0  T
   3  -5197.8403555  0.191282E-04  0.216E-03    3.97       1.0  T
   4  -5197.8403785 -0.230417E-04  0.295E-04    3.97       5.5  T
   5  -5197.8403787 -0.212321E-06  0.140E-04    3.97      11.5  T
   6  -5197.8403787 -0.943601E-08  0.654E-05    3.97      24.6  T
     SCC iter.                  ...       21 min,  9.777 sec
     gradient                   ...        5 min, 24.738 sec
 * total energy  : -5104.0792881 Eh     change    :  -0.5897764E-02 Eh
   gradient norm :     0.0417356 Eh/a0  converged?    E=F G=F D=F
   time step     :     0.6484356 fs     power     :   0.9946997E-07
   step length   :     0.2102390 a0     speed     :   0.7842626E-02

........................................................................
.............................. CYCLE   36 ..............................
........................................................................

 iter      E             dE          RMSdq      gap      omega  full diag
   1  -5197.9887976 -0.519799E+04  0.988E-03    3.97       0.0  T
   2  -5197.9888040 -0.637775E-05  0.601E-03    3.97       1.0  T
   3  -5197.9887795  0.245331E-04  0.240E-03    3.97       1.0  T
   4  -5197.9888090 -0.294825E-04  0.282E-04    3.97       5.7  T
   5  -5197.9888091 -0.154355E-06  0.140E-04    3.97      11.5  T
   6  -5197.9888091 -0.875116E-08  0.655E-05    3.97      24.6  T
     SCC iter.                  ...       21 min,  6.025 sec
     gradient                   ...        5 min, 23.564 sec
 * total energy  : -5104.0848795 Eh     change    :  -0.5591475E-02 Eh
   gradient norm :     0.0434149 Eh/a0  converged?    E=F G=F D=F
   time step     :     0.7132792 fs     power     :   0.8583670E-07
   step length   :     0.2354288 a0     speed     :   0.7983902E-02

........................................................................
.............................. CYCLE   37 ..............................
........................................................................

 iter      E             dE          RMSdq      gap      omega  full diag
   1  -5198.1548706 -0.519815E+04  0.103E-02    3.97       0.0  T
   2  -5198.1548791 -0.854941E-05  0.617E-03    3.97       1.0  T
   3  -5198.1548619  0.171855E-04  0.227E-03    3.97       1.0  T
   4  -5198.1548828 -0.208625E-04  0.349E-04    3.97       4.6  T
   5  -5198.1548831 -0.318826E-06  0.146E-04    3.97      11.0  T
   6  -5198.1548831 -0.748423E-08  0.791E-05    3.97      20.3  T
     SCC iter.                  ...       21 min,  7.224 sec
     gradient                   ...        5 min, 23.887 sec
 * total energy  : -5104.0905320 Eh     change    :  -0.5652463E-02 Eh
   gradient norm :     0.0401355 Eh/a0  converged?    E=F G=F D=F
   time step     :     0.7846071 fs     power     :   0.7757894E-07
   step length   :     0.2611366 a0     speed     :   0.8050645E-02

........................................................................
.............................. CYCLE   38 ..............................
........................................................................

 iter      E             dE          RMSdq      gap      omega  full diag
   1  -5198.3023652 -0.519830E+04  0.107E-02    3.96       0.0  T
   2  -5198.3023744 -0.917001E-05  0.628E-03    3.96       1.0  T
   3  -5198.3023652  0.921484E-05  0.188E-03    3.96       1.0  T
   4  -5198.3023766 -0.113958E-04  0.354E-04    3.97       4.5  T
   5  -5198.3023769 -0.300884E-06  0.149E-04    3.96      10.8  T
   6  -5198.3023769 -0.798536E-08  0.819E-05    3.96      19.6  T
     SCC iter.                  ...       21 min,  5.061 sec
     gradient                   ...        5 min, 28.377 sec
 * total energy  : -5104.0961130 Eh     change    :  -0.5580996E-02 Eh
   gradient norm :     0.0424434 Eh/a0  converged?    E=F G=F D=F
   time step     :     0.8630678 fs     power     :   0.6784352E-07
   step length   :     0.2892275 a0     speed     :   0.8106060E-02

........................................................................
.............................. CYCLE   39 ..............................
........................................................................

 iter      E             dE          RMSdq      gap      omega  full diag
   1  -5198.3803014 -0.519838E+04  0.107E-02    3.96       0.0  T
   2  -5198.3803061 -0.468479E-05  0.631E-03    3.96       1.0  T
   3  -5198.3802989  0.718389E-05  0.147E-03    3.96       1.1  T
   4  -5198.3803076 -0.877896E-05  0.270E-04    3.97       6.0  T
   5  -5198.3803078 -0.142029E-06  0.138E-04    3.97      11.6  T
   6  -5198.3803078 -0.923228E-08  0.605E-05    3.97      26.6  T
     SCC iter.                  ...       21 min,  6.382 sec
     gradient                   ...        5 min, 23.781 sec
 * total energy  : -5104.1022150 Eh     change    :  -0.6101988E-02 Eh
   gradient norm :     0.0420841 Eh/a0  converged?    E=F G=F D=F
   time step     :     0.9493746 fs     power     :   0.7082179E-07
   step length   :     0.3187666 a0     speed     :   0.8121762E-02

........................................................................
.............................. CYCLE   40 ..............................
........................................................................

 iter      E             dE          RMSdq      gap      omega  full diag
   1  -5198.3548912 -0.519835E+04  0.111E-02    3.96       0.0  T
   2  -5198.3549003 -0.906709E-05  0.668E-03    3.96       1.0  T
   3  -5198.3548836  0.166817E-04  0.207E-03    3.96       1.0  T
   4  -5198.3549038 -0.202674E-04  0.370E-04    3.97       4.3  T
   5  -5198.3549041 -0.311422E-06  0.214E-04    3.97       7.5  T
   6  -5198.3549042 -0.340669E-07  0.133E-04    3.97      12.1  T
     SCC iter.                  ...       21 min,  8.372 sec
     gradient                   ...        5 min, 24.333 sec
 * total energy  : -5104.1091158 Eh     change    :  -0.6900784E-02 Eh
   gradient norm :     0.0392480 Eh/a0  converged?    E=F G=F D=F
   time step     :     1.0443120 fs     power     :   0.7135950E-07
   step length   :     0.3545326 a0     speed     :   0.8211850E-02

........................................................................
.............................. CYCLE   41 ..............................
........................................................................

 iter      E             dE          RMSdq      gap      omega  full diag
   1  -5198.2486304 -0.519825E+04  0.124E-02    3.96       0.0  T
   2  -5198.2486480 -0.175821E-04  0.748E-03    3.96       1.0  T
   3  -5198.2486318  0.161230E-04  0.230E-03    3.96       1.0  T
   4  -5198.2486518 -0.199031E-04  0.544E-04    3.96       3.0  T
   5  -5198.2486527 -0.900196E-06  0.248E-04    3.96       6.5  T
   6  -5198.2486527 -0.348582E-07  0.151E-04    3.96      10.7  T
     SCC iter.                  ...       21 min,  8.905 sec
     gradient                   ...        5 min, 34.062 sec
 * total energy  : -5104.1162652 Eh     change    :  -0.7149438E-02 Eh
   gradient norm :     0.0357255 Eh/a0  converged?    E=F G=F D=F
   time step     :     1.1487432 fs     power     :   0.6264993E-07
   step length   :     0.3967564 a0     speed     :   0.8354415E-02

........................................................................
.............................. CYCLE   42 ..............................
........................................................................

 iter      E             dE          RMSdq      gap      omega  full diag
   1  -5198.1432742 -0.519814E+04  0.136E-02    3.96       0.0  T
   2  -5198.1432838 -0.959806E-05  0.811E-03    3.96       1.0  T
   3  -5198.1432651  0.186899E-04  0.254E-03    3.96       1.0  T
   4  -5198.1432879 -0.228079E-04  0.384E-04    3.96       4.2  T
   5  -5198.1432882 -0.231721E-06  0.198E-04    3.96       8.1  T
   6  -5198.1432882 -0.178434E-07  0.910E-05    3.96      17.7  T
     SCC iter.                  ...       21 min, 11.860 sec
     gradient                   ...        5 min, 23.892 sec
 * total energy  : -5104.1231143 Eh     change    :  -0.6849059E-02 Eh
   gradient norm :     0.0369030 Eh/a0  converged?    E=F G=F D=F
   time step     :     1.2500000 fs     power     :   0.5425638E-07
   step length   :     0.4368855 a0     speed     :   0.8454204E-02
 * RMSD in coord.:     0.0562835 a0     energy gain  -0.1069126E+00 Eh

........................................................................
.............................. CYCLE   43 ..............................
........................................................................

 iter      E             dE          RMSdq      gap      omega  full diag
   1  -5198.1312945 -0.519813E+04  0.233E-03    3.96       0.0  T
   2  -5198.1312949 -0.330935E-06  0.142E-03    3.96       1.1  T
   3  -5198.1312936  0.129213E-05  0.568E-04    3.96       2.8  T
   4  -5198.1312951 -0.155577E-05  0.684E-05    3.96      23.5  T
   5  -5198.1312951 -0.973887E-08  0.374E-05    3.96      43.0  T
   6  -5198.1312952 -0.103591E-08  0.189E-05    3.96      85.3  T
     SCC iter.                  ...       21 min,  8.087 sec
     gradient                   ...        5 min, 24.527 sec
 * total energy  : -5104.1243906 Eh     change    :  -0.1276320E-02 Eh
   gradient norm :     0.0360821 Eh/a0  converged?    E=F G=F D=F
   time step     :     0.2500000 fs     power     :   0.6529796E-07
   step length   :     0.0827432 a0     speed     :   0.8005854E-02

........................................................................
.............................. CYCLE   44 ..............................
........................................................................

 iter      E             dE          RMSdq      gap      omega  full diag
   1  -5198.1284311 -0.519813E+04  0.232E-03    3.96       0.0  T
   2  -5198.1284317 -0.590874E-06  0.145E-03    3.96       1.1  T
   3  -5198.1284302  0.157216E-05  0.659E-04    3.96       2.4  T
   4  -5198.1284322 -0.205191E-05  0.811E-05    3.96      19.8  T
   5  -5198.1284322 -0.183354E-07  0.364E-05    3.96      44.1  T
   6  -5198.1284322 -0.966793E-09  0.193E-05    3.96      83.2  T
     SCC iter.                  ...       21 min,  7.075 sec
     gradient                   ...        5 min, 23.262 sec
 * total energy  : -5104.1258114 Eh     change    :  -0.1420833E-02 Eh
   gradient norm :     0.0324541 Eh/a0  converged?    E=F G=F D=F
   time step     :     0.2500000 fs     power     :   0.7213194E-07
   step length   :     0.0793165 a0     speed     :   0.7674301E-02

........................................................................
.............................. CYCLE   45 ..............................
........................................................................

 iter      E             dE          RMSdq      gap      omega  full diag
   1  -5198.1346791 -0.519813E+04  0.252E-03    3.96       0.0  T
   2  -5198.1346800 -0.892975E-06  0.159E-03    3.96       1.0  T
   3  -5198.1346782  0.178772E-05  0.744E-04    3.96       2.2  T
   4  -5198.1346807 -0.247547E-05  0.982E-05    3.96      16.4  T
   5  -5198.1346807 -0.272485E-07  0.434E-05    3.96      37.0  T
   6  -5198.1346807 -0.144064E-08  0.240E-05    3.96      67.1  T
     SCC iter.                  ...       21 min,  5.954 sec
     gradient                   ...        5 min, 27.880 sec
 * total energy  : -5104.1272642 Eh     change    :  -0.1452757E-02 Eh
   gradient norm :     0.0283056 Eh/a0  converged?    E=F G=F D=F
   time step     :     0.2500000 fs     power     :   0.7234727E-07
   step length   :     0.0770303 a0     speed     :   0.7453099E-02

........................................................................
.............................. CYCLE   46 ..............................
........................................................................

 iter      E             dE          RMSdq      gap      omega  full diag
   1  -5198.1500209 -0.519815E+04  0.271E-03    3.96       0.0  T
   2  -5198.1500219 -0.939902E-06  0.169E-03    3.96       1.0  T
   3  -5198.1500198  0.208605E-05  0.777E-04    3.96       2.1  T
   4  -5198.1500226 -0.278077E-05  0.103E-04    3.96      15.7  T
   5  -5198.1500226 -0.273594E-07  0.485E-05    3.96      33.2  T
   6  -5198.1500226 -0.181444E-08  0.269E-05    3.96      59.8  T
     SCC iter.                  ...       21 min,  5.062 sec
     gradient                   ...        5 min, 24.406 sec
 * total energy  : -5104.1286533 Eh     change    :  -0.1389114E-02 Eh
   gradient norm :     0.0261556 Eh/a0  converged?    E=F G=F D=F
   time step     :     0.2500000 fs     power     :   0.6826101E-07
   step length   :     0.0755339 a0     speed     :   0.7308309E-02

........................................................................
.............................. CYCLE   47 ..............................
........................................................................

 iter      E             dE          RMSdq      gap      omega  full diag
   1  -5198.1736476 -0.519817E+04  0.275E-03    3.96       0.0  T
   2  -5198.1736483 -0.684411E-06  0.168E-03    3.96       1.0  T
   3  -5198.1736463  0.194353E-05  0.702E-04    3.96       2.3  T
   4  -5198.1736487 -0.241106E-05  0.937E-05    3.96      17.2  T
   5  -5198.1736488 -0.199107E-07  0.476E-05    3.96      33.8  T
   6  -5198.1736488 -0.162618E-08  0.259E-05    3.96      62.1  T
     SCC iter.                  ...       21 min,  4.791 sec
     gradient                   ...        5 min, 24.526 sec
 * total energy  : -5104.1299582 Eh     change    :  -0.1304945E-02 Eh
   gradient norm :     0.0262970 Eh/a0  converged?    E=F G=F D=F
   time step     :     0.2500000 fs     power     :   0.6445454E-07
   step length   :     0.0742163 a0     speed     :   0.7180829E-02

........................................................................
.............................. CYCLE   48 ..............................
........................................................................

 iter      E             dE          RMSdq      gap      omega  full diag
   1  -5198.2068089 -0.519821E+04  0.294E-03    3.96       0.0  T
   2  -5198.2068093 -0.462094E-06  0.176E-03    3.96       1.0  T
   3  -5198.2068081  0.126187E-05  0.567E-04    3.96       2.8  T
   4  -5198.2068096 -0.151094E-05  0.874E-05    3.96      18.4  T
   5  -5198.2068096 -0.155860E-07  0.460E-05    3.96      35.0  T
   6  -5198.2068096 -0.107138E-08  0.225E-05    3.96      71.4  T
     SCC iter.                  ...       21 min, 10.991 sec
     gradient                   ...        5 min, 24.047 sec
 * total energy  : -5104.1313416 Eh     change    :  -0.1383391E-02 Eh
   gradient norm :     0.0269303 Eh/a0  converged?    E=F G=F D=F
   time step     :     0.2750000 fs     power     :   0.6277320E-07
   step length   :     0.0800995 a0     speed     :   0.7045509E-02

........................................................................
.............................. CYCLE   49 ..............................
........................................................................

 iter      E             dE          RMSdq      gap      omega  full diag
   1  -5198.2482838 -0.519825E+04  0.309E-03    3.96       0.0  T
   2  -5198.2482841 -0.349704E-06  0.183E-03    3.96       1.0  T
   3  -5198.2482836  0.531985E-06  0.433E-04    3.96       3.7  T
   4  -5198.2482843 -0.672372E-06  0.764E-05    3.96      21.0  T
     SCC iter.                  ...       14 min,  9.752 sec
     gradient                   ...        5 min, 22.200 sec
 * total energy  : -5104.1328493 Eh     change    :  -0.1507711E-02 Eh
   gradient norm :     0.0265191 Eh/a0  converged?    E=F G=F D=F
   time step     :     0.3025000 fs     power     :   0.6266986E-07
   step length   :     0.0864897 a0     speed     :   0.6915982E-02

........................................................................
.............................. CYCLE   50 ..............................
........................................................................

 iter      E             dE          RMSdq      gap      omega  full diag
   1  -5198.2959507 -0.519830E+04  0.325E-03    3.96       0.0  T
   2  -5198.2959511 -0.417753E-06  0.194E-03    3.96       1.0  T
   3  -5198.2959502  0.952281E-06  0.524E-04    3.96       3.1  T
   4  -5198.2959513 -0.116478E-05  0.765E-05    3.96      21.0  T
   5  -5198.2959513 -0.642558E-08  0.434E-05    3.96      37.1  T
     SCC iter.                  ...       17 min, 36.301 sec
     gradient                   ...        5 min, 23.538 sec
 * total energy  : -5104.1344957 Eh     change    :  -0.1646351E-02 Eh
   gradient norm :     0.0247820 Eh/a0  converged?    E=F G=F D=F
   time step     :     0.3327500 fs     power     :   0.6198472E-07
   step length   :     0.0938140 a0     speed     :   0.6819688E-02

........................................................................
.............................. CYCLE   51 ..............................
........................................................................

 iter      E             dE          RMSdq      gap      omega  full diag
   1  -5198.3463043 -0.519835E+04  0.347E-03    3.96       0.0  T
   2  -5198.3463049 -0.564135E-06  0.208E-03    3.96       1.0  T
   3  -5198.3463034  0.151042E-05  0.611E-04    3.97       2.6  T
   4  -5198.3463052 -0.181852E-05  0.895E-05    3.96      18.0  T
   5  -5198.3463052 -0.120644E-07  0.490E-05    3.96      32.9  T
   6  -5198.3463052 -0.150067E-08  0.216E-05    3.96      74.4  T
     SCC iter.                  ...       21 min, 13.000 sec
     gradient                   ...        5 min, 22.562 sec
 * total energy  : -5104.1362456 Eh     change    :  -0.1749920E-02 Eh
   gradient norm :     0.0225800 Eh/a0  converged?    E=F G=F D=F
   time step     :     0.3660250 fs     power     :   0.5911143E-07
   step length   :     0.1024241 a0     speed     :   0.6768718E-02

........................................................................
.............................. CYCLE   52 ..............................
........................................................................

 iter      E             dE          RMSdq      gap      omega  full diag
   1  -5198.3937691 -0.519839E+04  0.369E-03    3.97       0.0  T
   2  -5198.3937697 -0.628277E-06  0.220E-03    3.97       1.0  T
   3  -5198.3937686  0.109042E-05  0.552E-04    3.97       2.9  T
   4  -5198.3937700 -0.134437E-05  0.102E-04    3.97      15.7  T
   5  -5198.3937700 -0.182945E-07  0.542E-05    3.97      29.7  T
   6  -5198.3937700 -0.108048E-08  0.227E-05    3.97      70.8  T
     SCC iter.                  ...       21 min,  7.866 sec
     gradient                   ...        5 min, 24.034 sec
 * total energy  : -5104.1380432 Eh     change    :  -0.1797548E-02 Eh
   gradient norm :     0.0214603 Eh/a0  converged?    E=F G=F D=F
   time step     :     0.4026275 fs     power     :   0.5442521E-07
   step length   :     0.1123493 a0     speed     :   0.6749664E-02

........................................................................
.............................. CYCLE   53 ..............................
........................................................................

 iter      E             dE          RMSdq      gap      omega  full diag
   1  -5198.4312168 -0.519843E+04  0.385E-03    3.97       0.0  T
   2  -5198.4312175 -0.729137E-06  0.229E-03    3.97       1.0  T
   3  -5198.4312164  0.116893E-05  0.608E-04    3.97       2.6  T
   4  -5198.4312178 -0.145795E-05  0.107E-04    3.97      15.1  T
   5  -5198.4312178 -0.211394E-07  0.601E-05    3.97      26.8  T
   6  -5198.4312178 -0.183263E-08  0.262E-05    3.97      61.4  T
     SCC iter.                  ...       21 min,  5.780 sec
     gradient                   ...        5 min, 23.999 sec
 * total energy  : -5104.1398776 Eh     change    :  -0.1834393E-02 Eh
   gradient norm :     0.0223321 Eh/a0  converged?    E=F G=F D=F
   time step     :     0.4428903 fs     power     :   0.5054970E-07
   step length   :     0.1231170 a0     speed     :   0.6724145E-02

........................................................................
.............................. CYCLE   54 ..............................
........................................................................

 iter      E             dE          RMSdq      gap      omega  full diag
   1  -5198.4529398 -0.519845E+04  0.399E-03    3.97       0.0  T
   2  -5198.4529408 -0.963532E-06  0.239E-03    3.97       1.0  T
   3  -5198.4529375  0.333043E-05  0.914E-04    3.97       1.8  T
   4  -5198.4529415 -0.402239E-05  0.112E-04    3.97      14.4  T
   5  -5198.4529415 -0.233031E-07  0.648E-05    3.97      24.8  T
   6  -5198.4529415 -0.267846E-08  0.322E-05    3.97      49.9  T
     SCC iter.                  ...       21 min,  8.577 sec
     gradient                   ...        5 min, 26.521 sec
 * total energy  : -5104.1418311 Eh     change    :  -0.1953500E-02 Eh
   gradient norm :     0.0231946 Eh/a0  converged?    E=F G=F D=F
   time step     :     0.4871793 fs     power     :   0.4983372E-07
   step length   :     0.1342829 a0     speed     :   0.6667252E-02

........................................................................
.............................. CYCLE   55 ..............................
........................................................................

 iter      E             dE          RMSdq      gap      omega  full diag
   1  -5198.4564598 -0.519846E+04  0.423E-03    3.97       0.0  T
   2  -5198.4564610 -0.115733E-05  0.254E-03    3.97       1.0  T
   3  -5198.4564565  0.450243E-05  0.106E-03    3.97       1.5  T
   4  -5198.4564619 -0.543886E-05  0.111E-04    3.97      14.5  T
   5  -5198.4564619 -0.196351E-07  0.646E-05    3.97      24.9  T
   6  -5198.4564619 -0.236105E-08  0.326E-05    3.97      49.3  T
     SCC iter.                  ...       21 min, 13.110 sec
     gradient                   ...        5 min, 28.626 sec
 * total energy  : -5104.1439899 Eh     change    :  -0.2158832E-02 Eh
   gradient norm :     0.0214619 Eh/a0  converged?    E=F G=F D=F
   time step     :     0.5358972 fs     power     :   0.5020656E-07
   step length   :     0.1465970 a0     speed     :   0.6616964E-02

........................................................................
.............................. CYCLE   56 ..............................
........................................................................

 iter      E             dE          RMSdq      gap      omega  full diag
   1  -5198.4421178 -0.519844E+04  0.459E-03    3.97       0.0  T
   2  -5198.4421190 -0.120823E-05  0.273E-03    3.97       1.0  T
   3  -5198.4421158  0.322722E-05  0.973E-04    3.97       1.7  T
   4  -5198.4421196 -0.387702E-05  0.125E-04    3.97      12.9  T
   5  -5198.4421197 -0.292912E-07  0.654E-05    3.97      24.6  T
   6  -5198.4421197 -0.146247E-08  0.297E-05    3.97      54.1  T
     SCC iter.                  ...       21 min,  5.659 sec
     gradient                   ...        5 min, 24.247 sec
 * total energy  : -5104.1462905 Eh     change    :  -0.2300656E-02 Eh
   gradient norm :     0.0188843 Eh/a0  converged?    E=F G=F D=F
   time step     :     0.5894869 fs     power     :   0.4742866E-07
   step length   :     0.1613417 a0     speed     :   0.6620452E-02

........................................................................
.............................. CYCLE   57 ..............................
........................................................................

 iter      E             dE          RMSdq      gap      omega  full diag
   1  -5198.4138982 -0.519841E+04  0.494E-03    3.97       0.0  T
   2  -5198.4138993 -0.105101E-05  0.294E-03    3.97       1.0  T
   3  -5198.4138974  0.184356E-05  0.785E-04    3.97       2.0  T
   4  -5198.4138997 -0.227251E-05  0.119E-04    3.97      13.5  T
   5  -5198.4138997 -0.161863E-07  0.670E-05    3.97      24.0  T
   6  -5198.4138997 -0.216005E-08  0.307E-05    3.97      52.5  T
     SCC iter.                  ...       21 min,  5.853 sec
     gradient                   ...        5 min, 25.792 sec
 * total energy  : -5104.1486163 Eh     change    :  -0.2325769E-02 Eh
   gradient norm :     0.0190452 Eh/a0  converged?    E=F G=F D=F
[...]
  3618   6 C     3619   6 C                                       1.3833380
  3619   6 C     3620   6 C                                       1.3847826
  3620   6 C     3621   6 C                                       1.3835453
  3617   6 C     3622   6 C                                       1.3886337
  3621   6 C     3622   6 C                                       1.3847043
  3616   6 C     3623   6 C                                       1.5398005
  3623   6 C     3624   6 C                                       1.5349975
  3625   6 C     3626   6 C                                       1.3912943
  3626   6 C     3627   6 C                                       1.3824412
  3627   6 C     3628   6 C                                       1.3850453
  3628   6 C     3629   6 C                                       1.3832317
  3625   6 C     3630   6 C                                       1.3882049
  3629   6 C     3630   6 C                                       1.3834013
  3624   6 C     3631   6 C                                       1.5395186
  3631   6 C     3632   6 C                                       1.5390590
  3633   6 C     3634   6 C                                       1.3895090
  3634   6 C     3635   6 C                                       1.3836404
  3635   6 C     3636   6 C                                       1.3843133
  3636   6 C     3637   6 C                                       1.3846403
  3633   6 C     3638   6 C                                       1.3902692
  3637   6 C     3638   6 C                                       1.3829113
  3632   6 C     3639   6 C                                       1.5345483
  3639   6 C     3640   6 C                                       1.5358993
  3641   6 C     3642   6 C                                       1.3895931
  3642   6 C     3643   6 C                                       1.3820574
  3643   6 C     3644   6 C                                       1.3842188
  3644   6 C     3645   6 C                                       1.3823730
  3641   6 C     3646   6 C                                       1.3881194
  3645   6 C     3646   6 C                                       1.3846821
  3640   6 C     3647   6 C                                       1.5377233
  3647   6 C     3648   6 C                                       1.5404815
  3649   6 C     3650   6 C                                       1.3885496
  3650   6 C     3651   6 C                                       1.3839596
  3651   6 C     3652   6 C                                       1.3832925
  3652   6 C     3653   6 C                                       1.3845142
  3649   6 C     3654   6 C                                       1.3903451
  3653   6 C     3654   6 C                                       1.3827731
  3648   6 C     3655   6 C                                       1.5346295
  3655   6 C     3656   6 C                                       1.5374120
  3657   6 C     3658   6 C                                       1.3893562
  3658   6 C     3659   6 C                                       1.3838444
  3659   6 C     3660   6 C                                       1.3845540
  3660   6 C     3661   6 C                                       1.3844724
  3657   6 C     3662   6 C                                       1.3898331
  3661   6 C     3662   6 C                                       1.3827775
  3656   6 C     3663   6 C                                       1.5383915
  3663   6 C     3664   6 C                                       1.5333584
  3665   6 C     3666   6 C                                       1.3905713
  3666   6 C     3667   6 C                                       1.3829830
  3667   6 C     3668   6 C                                       1.3844991
  3668   6 C     3669   6 C                                       1.3838845
  3665   6 C     3670   6 C                                       1.3890430
  3669   6 C     3670   6 C                                       1.3839896
  3664   6 C     3671   6 C                                       1.5405224
  3671   6 C     3672   6 C                                       1.5397592
  3673   6 C     3674   6 C                                       1.3895780
  3674   6 C     3675   6 C                                       1.3832674
  3675   6 C     3676   6 C                                       1.3835466
  3676   6 C     3677   6 C                                       1.3846861
  3673   6 C     3678   6 C                                       1.3901551
  3677   6 C     3678   6 C                                       1.3838976
  3672   6 C     3679   6 C                                       1.5323102
  3679   6 C     3680   6 C                                       1.5396782
  3681   6 C     3682   6 C                                       1.3903650
  3682   6 C     3683   6 C                                       1.3840333
  3683   6 C     3684   6 C                                       1.3843783
  3684   6 C     3685   6 C                                       1.3841091
  3681   6 C     3686   6 C                                       1.3902452
  3685   6 C     3686   6 C                                       1.3843470
  3680   6 C     3687   6 C                                       1.5364048
  3687   6 C     3688   6 C                                       1.5351063
  3549   6 C     3689   1 H                                       1.0969993
  3551   6 C     3690   1 H                                       1.0925770
  3551   6 C     3691   1 H                                       1.0914135
  3552   6 C     3692   1 H                                       1.0965128
  3559   6 C     3693   1 H                                       1.0914368
  3559   6 C     3694   1 H                                       1.0914678
  3560   6 C     3695   1 H                                       1.0968225
  3567   6 C     3696   1 H                                       1.0914195
  3567   6 C     3697   1 H                                       1.0913326
  3568   6 C     3698   1 H                                       1.0931062
  3575   6 C     3699   1 H                                       1.0926515
  3576   6 C     3700   1 H                                       1.0951269
  3583   6 C     3701   1 H                                       1.0903506
  3583   6 C     3702   1 H                                       1.0901282
  3584   6 C     3703   1 H                                       1.0973176
  3591   6 C     3704   1 H                                       1.0917662
  3591   6 C     3705   1 H                                       1.0914065
  3592   6 C     3706   1 H                                       1.0965314
  3599   6 C     3707   1 H                                       1.0911233
  3599   6 C     3708   1 H                                       1.0919410
  3600   6 C     3709   1 H                                       1.0940034
  3608   6 C     3710   1 H                                       1.0957011
  3615   6 C     3711   1 H                                       1.0913434
  3615   6 C     3712   1 H                                       1.0909080
  3616   6 C     3713   1 H                                       1.0956641
  3623   6 C     3714   1 H                                       1.0922056
  3623   6 C     3715   1 H                                       1.0905284
  3624   6 C     3716   1 H                                       1.0944231
  3631   6 C     3717   1 H                                       1.0931780
  3631   6 C     3718   1 H                                       1.0928554
  3632   6 C     3719   1 H                                       1.0927754
  3639   6 C     3720   1 H                                       1.0917247
  3639   6 C     3721   1 H                                       1.0913636
  3640   6 C     3722   1 H                                       1.0956312
  3647   6 C     3723   1 H                                       1.0928264
  3647   6 C     3724   1 H                                       1.0931748
  3648   6 C     3725   1 H                                       1.0956197
  3655   6 C     3726   1 H                                       1.0916894
  3655   6 C     3727   1 H                                       1.0920036
  3656   6 C     3728   1 H                                       1.0960303
  3663   6 C     3729   1 H                                       1.0914117
  3663   6 C     3730   1 H                                       1.0913059
  3664   6 C     3731   1 H                                       1.0950180
  3671   6 C     3732   1 H                                       1.0916516
  3671   6 C     3733   1 H                                       1.0929936
  3672   6 C     3734   1 H                                       1.0935715
  3679   6 C     3735   1 H                                       1.0923617
  3679   6 C     3736   1 H                                       1.0919324
  3543   6 C     3737   1 H                                       1.0794457
  3548   6 C     3738   1 H                                       1.0800111
  3547   6 C     3739   1 H                                       1.0807196
  3546   6 C     3740   1 H                                       1.0797339
  3545   6 C     3741   1 H                                       1.0812420
  3554   6 C     3742   1 H                                       1.0807187
  3555   6 C     3743   1 H                                       1.0810180
  3556   6 C     3744   1 H                                       1.0806643
  3557   6 C     3745   1 H                                       1.0814220
  3558   6 C     3746   1 H                                       1.0817580
  3562   6 C     3747   1 H                                       1.0806568
  3563   6 C     3748   1 H                                       1.0812870
  3564   6 C     3749   1 H                                       1.0795899
  3565   6 C     3750   1 H                                       1.0798663
  3566   6 C     3751   1 H                                       1.0799702
  3570   6 C     3752   1 H                                       1.0801851
  3571   6 C     3753   1 H                                       1.0796840
  3572   6 C     3754   1 H                                       1.0811649
  3573   6 C     3755   1 H                                       1.0808729
  3574   6 C     3756   1 H                                       1.0820605
  3575   6 C     3757   1 H                                       1.0924836
  3578   6 C     3758   1 H                                       1.0815667
  3579   6 C     3759   1 H                                       1.0801065
  3580   6 C     3760   1 H                                       1.0807704
  3581   6 C     3761   1 H                                       1.0814343
  3582   6 C     3762   1 H                                       1.0794355
  3586   6 C     3763   1 H                                       1.0804111
  3587   6 C     3764   1 H                                       1.0803425
  3588   6 C     3765   1 H                                       1.0811688
  3589   6 C     3766   1 H                                       1.0809170
  3590   6 C     3767   1 H                                       1.0810560
  3594   6 C     3768   1 H                                       1.0806004
  3595   6 C     3769   1 H                                       1.0802066
  3596   6 C     3770   1 H                                       1.0797088
  3597   6 C     3771   1 H                                       1.0814493
  3598   6 C     3772   1 H                                       1.0822874
  3602   6 C     3773   1 H                                       1.0815979
  3603   6 C     3774   1 H                                       1.0811185
  3604   6 C     3775   1 H                                       1.0811044
  3605   6 C     3776   1 H                                       1.0813683
  3606   6 C     3777   1 H                                       1.0802183
  3607   6 C     3778   1 H                                       1.0914245
  3607   6 C     3779   1 H                                       1.0918400
  3610   6 C     3780   1 H                                       1.0823058
  3611   6 C     3781   1 H                                       1.0818061
  3612   6 C     3782   1 H                                       1.0807654
  3613   6 C     3783   1 H                                       1.0809186
  3614   6 C     3784   1 H                                       1.0797115
  3618   6 C     3785   1 H                                       1.0806223
  3619   6 C     3786   1 H                                       1.0807650
  3620   6 C     3787   1 H                                       1.0807374
  3621   6 C     3788   1 H                                       1.0815806
  3622   6 C     3789   1 H                                       1.0823270
  3626   6 C     3790   1 H                                       1.0798745
  3627   6 C     3791   1 H                                       1.0810165
  3628   6 C     3792   1 H                                       1.0806553
  3629   6 C     3793   1 H                                       1.0803511
  3630   6 C     3794   1 H                                       1.0802505
  3634   6 C     3795   1 H                                       1.0805596
  3635   6 C     3796   1 H                                       1.0807288
  3636   6 C     3797   1 H                                       1.0801461
  3637   6 C     3798   1 H                                       1.0813581
  3638   6 C     3799   1 H                                       1.0808423
  3642   6 C     3800   1 H                                       1.0804157
  3643   6 C     3801   1 H                                       1.0798756
  3644   6 C     3802   1 H                                       1.0801596
  3645   6 C     3803   1 H                                       1.0808748
  3646   6 C     3804   1 H                                       1.0816127
  3650   6 C     3805   1 H                                       1.0818322
  3651   6 C     3806   1 H                                       1.0816672
  3652   6 C     3807   1 H                                       1.0812057
  3653   6 C     3808   1 H                                       1.0805803
  3654   6 C     3809   1 H                                       1.0795409
  3658   6 C     3810   1 H                                       1.0815885
  3659   6 C     3811   1 H                                       1.0814420
  3660   6 C     3812   1 H                                       1.0810571
  3661   6 C     3813   1 H                                       1.0804167
  3662   6 C     3814   1 H                                       1.0794686
  3666   6 C     3815   1 H                                       1.0800239
  3667   6 C     3816   1 H                                       1.0801590
  3668   6 C     3817   1 H                                       1.0808861
  3669   6 C     3818   1 H                                       1.0812329
  3670   6 C     3819   1 H                                       1.0816552
  3674   6 C     3820   1 H                                       1.0800219
  3675   6 C     3821   1 H                                       1.0807044
  3676   6 C     3822   1 H                                       1.0806964
  3677   6 C     3823   1 H                                       1.0815161
  3678   6 C     3824   1 H                                       1.0804677
  3686   6 C     3825   1 H                                       1.0812030
  3685   6 C     3826   1 H                                       1.0807963
  3684   6 C     3827   1 H                                       1.0804935
  3683   6 C     3828   1 H                                       1.0805744
  3682   6 C     3829   1 H                                       1.0804089
  3550   6 C     3830   1 H                                       1.0878155
  3550   6 C     3831   1 H                                       1.0867909
  3550   6 C     3832   1 H                                       1.0878813
  3680   6 C     3833   1 H                                       1.0963135
  3687   6 C     3834   1 H                                       1.0923535
  3687   6 C     3835   1 H                                       1.0932508
  3688   6 C     3836   6 C                                       1.5364955
  3837   6 C     3838   6 C                                       1.3887468
  3838   6 C     3839   6 C                                       1.3828942
  3839   6 C     3840   6 C                                       1.3827957
  3840   6 C     3841   6 C                                       1.3837147
  3837   6 C     3842   6 C                                       1.3897429
  3841   6 C     3842   6 C                                       1.3824260
  3838   6 C     3843   1 H                                       1.0814769
  3839   6 C     3844   1 H                                       1.0800874
  3840   6 C     3845   1 H                                       1.0803873
  3841   6 C     3846   1 H                                       1.0811132
  3842   6 C     3847   1 H                                       1.0808570
  3836   6 C     3848   6 C                                       1.5328377
  3836   6 C     3849   1 H                                       1.0909149
  3836   6 C     3850   1 H                                       1.0934225
  3851   6 C     3852   6 C                                       1.3874918
  3852   6 C     3853   6 C                                       1.3832128
  3853   6 C     3854   6 C                                       1.3832004
  3854   6 C     3855   6 C                                       1.3842121
  3851   6 C     3856   6 C                                       1.3898690
  3855   6 C     3856   6 C                                       1.3821109
  3852   6 C     3857   1 H                                       1.0799516
  3853   6 C     3858   1 H                                       1.0805112
  3854   6 C     3859   1 H                                       1.0806779
  3855   6 C     3860   1 H                                       1.0811321
  3856   6 C     3861   1 H                                       1.0814140
  3688   6 C     3862   1 H                                       1.0948116
  3848   6 C     3863   1 H                                       1.0935798
  3848   6 C     3864   1 H                                       1.0904711

 * 2 distinct bonds (by element types)

   Z      Z             #   av. dist./Å        max./Å        min./Å
   1 H    6 C        1944     1.0852985     1.0986439     1.0778364
   6 C    6 C        1855     1.4193264     1.5406643     1.3797038


optimized geometry written to: xtbopt.xyz


           -------------------------------------------------
          | TOTAL ENERGY            -5104.232114202066 Eh   |
          | GRADIENT NORM               0.000776163659 Eh/α |
          | HOMO-LUMO GAP               3.955645390328 eV   |
           -------------------------------------------------

------------------------------------------------------------------------
 * finished run on 2024/07/15 at 20:04:06.823     
------------------------------------------------------------------------
 total:
 * wall-time:     7 d, 21 h,  9 min, 33.437 sec
 *  cpu-time:    49 d, 23 h, 20 min, 38.208 sec
 * ratio c/w:     6.340 speedup
 SCF:
 * wall-time:     0 d,  0 h, 16 min, 51.017 sec
 *  cpu-time:     0 d,  1 h, 44 min, 37.520 sec
 * ratio c/w:     6.209 speedup
 ANC optimizer:
 * wall-time:     7 d, 20 h, 51 min, 31.428 sec
 *  cpu-time:    49 d, 21 h, 34 min, 27.888 sec
 * ratio c/w:     6.341 speedup

