3864
 energy: -5104.232114202066 gnorm: 0.000776163659 xtb: 6.6.1 (8d0f1dd)
C           73.25973151210444       56.15687551745415       52.18017512075370
C           72.00795256253863       56.72003674606880       51.95924095901346
C           71.94589163212568       57.99129502198558       51.40219053180673
C           73.09822803964487       58.68286129282296       51.07150725100750
C           74.33808676726701       58.11069400240794       51.29577134607733
C           74.41389246702822       56.84434566389417       51.85132592097595
C           70.74295458116381       55.99112622076159       52.34195732121452
C           70.69097955400599       54.59814142314818       51.70993316318039
C           70.65053984025126       55.94864126779287       53.87657867633200
C           69.30855572979738       55.42704704446097       54.41006621135624
C           69.43700173687017       55.01390408638192       55.85570731224376
C           69.09221076146986       53.72904662783933       56.25573699178075
C           69.21144160957473       53.33548739165057       57.57727788884268
C           69.67264703995525       54.23029901903624       58.52698886127061
C           70.00806661419108       55.51856782168170       58.14463760504263
C           69.89445294495698       55.90436385022536       56.82085640673788
C           68.18531796474637       56.46511170496981       54.25977746818904
C           66.81199856638939       55.81054497408982       54.45056516734616
C           66.59801860197065       54.73389683793771       53.41440628827871
C           66.33049953199337       53.42906747232269       53.80596589516890
C           66.12655995240158       52.43244389733808       52.86843172856724
C           66.18994924901040       52.72491095448627       51.51791449588658
C           66.46888705494689       54.02022796280647       51.11396995062253
C           66.66782340185181       55.01396143784151       52.05476041212939
C           65.64456640936706       56.80652642633463       54.37509765921067
C           65.70310107545330       57.98569378436353       55.36163876383908
C           64.45820508289214       58.81762880890644       55.17273415679410
C           63.22508416983016       58.40764811855600       55.66558916653308
C           62.09335804941605       59.17846652873854       55.47593271329663
C           62.17056258466349       60.36957009031217       54.77482771835392
C           63.38975933448953       60.78508498718689       54.26899743658312
C           64.52152786135196       60.01413811637626       54.46935961225394
C           65.87474225039188       57.52561224859748       56.81334500951157
C           65.86079798212641       58.69499047852178       57.81038969944068
C           66.87586675941516       59.73484145703823       57.41294440638718
C           66.48082967067941       61.01866267684228       57.06188909396744
C           67.41364978918868       61.97107519556135       56.68865830569078
C           68.75997931504861       61.65170135599188       56.65972376131833
C           69.16678669031685       60.37508360085928       57.01188290514718
C           68.23252869535989       59.42786730672621       57.38759078655858
C           66.12783207848921       58.18438675171391       59.24188103826256
C           64.94773797572604       58.37453954928911       60.20856618758951
C           63.69872267156580       57.71119287940567       59.68828279570253
C           62.59528908362264       58.47546164146593       59.32868008662997
C           61.45228006591139       57.88196142265447       58.82048705957725
C           61.39241523869332       56.50811720179811       58.67021424658667
C           62.48142859460582       55.73344171512296       59.03274282924031
C           63.62378548822528       56.33124910805326       59.53416768277008
C           65.37197904717983       57.82617694699752       61.57637129383220
C           64.31614393045682       57.94833876427402       62.67873858834809
C           63.93343854345973       59.37782138885172       62.95920278834077
C           64.87855187489554       60.31709072571190       63.35631191211188
C           64.50485266485195       61.61210456628665       63.66671901834447
C           63.17486490136217       61.99089573327667       63.59474915610836
C           62.22381692090998       61.06674489316607       63.19899469008525
C           62.60498868584408       59.77615674294504       62.87775153631184
C           64.87659480256291       57.27804970902565       63.94435786987466
C           63.99736650322549       57.44405616041924       65.19013288741060
C           64.79633547160240       57.07303588860202       66.41482824630931
C           65.24461129797916       55.77275730827584       66.61885075106515
C           65.98453172125032       55.44805946528252       67.74113183102111
C           66.29066158817113       56.41869438621738       68.68050837991622
C           65.85098964359069       57.71681234565319       68.48717818941908
C           65.11165172329575       58.03877016059834       67.36239044044760
C           62.71591541420059       56.61066841633936       65.10620874401350
C           61.78920453027331       56.90634789965369       66.29744843133693
C           60.92991478410610       55.70449615947650       66.59518621807024
C           59.97097414961439       55.26518521162872       65.68796233855407
C           59.21354529349642       54.13779051287916       65.94791643694118
C           59.40510776321789       53.42182491805053       67.11741259524412
C           60.36169241925528       53.84344364359596       68.02514416001138
C           61.11500135719746       54.97654276086175       67.76489843091312
C           60.94555937128032       58.16022723518923       66.03405915753960
C           60.51193123131331       58.83992739378152       67.34291793127814
C           61.58841736541619       59.77925903027225       67.82102392439334
C           61.99761086530847       60.85855740623931       67.04479599079531
C           63.00407035125689       61.70196057090565       67.47684185834130
C           63.61772553469888       61.48567780897802       68.69954151762484
C           63.21315205640936       60.42104640431847       69.48587233385507
C           62.20819313145780       59.57641155360453       69.04714905957452
C           59.16310944800333       59.55974722658198       67.17679999529916
C           58.00938584174445       58.54660346442206       67.24379526779920
C           57.80700241494858       58.10134131542023       68.67376155183598
C           58.19821801204333       56.82962493089413       69.07538430046721
C           58.01022732761647       56.40596708464014       70.37897879715631
C           57.42910554453397       57.24934133879211       71.30790599394794
C           57.04973786378967       58.52438734234310       70.92483820505282
C           57.24011512243832       58.94567549790001       69.62148259550902
C           56.69152008300357       59.08493455508265       66.66732667029544
C           56.66019713494666       59.29113550751246       65.14007134285450
C           55.39203370291321       60.03959209644398       64.80572063183466
C           54.14753358977501       59.49794275965066       65.10953414443816
C           52.98188188689351       60.18949740786592       64.83919178679800
C           53.04014801115634       61.44896767056267       64.26665024917727
C           54.27170963223335       62.00063291757650       63.95783918520299
C           55.43647121293291       61.30197551719677       64.22781669997028
C           56.76855838224348       57.97039224348760       64.35895660832789
C           57.40257119264943       58.13198344043420       62.96287549809096
C           58.13521940793652       56.86828867153961       62.58167879650708
C           59.47793351740998       56.90833932814263       62.22906623841557
C           60.17337151609942       55.75082923837672       61.92415744630235
C           59.53105581304354       54.52691157545745       61.97794995933685
C           58.18941841525869       54.47299583498557       62.31516890244013
C           57.49659311602744       55.63326700600115       62.60742037321463
C           56.35754231929227       58.49617277247587       61.89814663189402
C           57.00550966087738       59.00085714661349       60.59917013690200
C           57.67118135008279       60.33632030871028       60.81786049753670
C           59.04369242669654       60.48589187328563       60.66803755689646
C           59.64810645824413       61.72130171346434       60.82752192533474
C           58.88634532117538       62.82901001245155       61.15687563834086
C           57.51683180666693       62.69227340439554       61.31401554297535
C           56.91551688027334       61.45969051117304       61.13829523921803
C           55.97970563302167       59.10844520642938       59.44778089407622
C           56.18260329103659       58.03203033035624       58.37275466327117
C           56.04561366195396       56.64337283424265       58.94144499386949
C           54.88633058249099       56.24329136508944       59.59630611429957
C           54.75896297134585       54.95864218868656       60.09242518496473
C           55.78212281320589       54.04281078132164       59.91977813856798
C           56.94180024778318       54.42987732305844       59.27219690019299
C           57.07327249177003       55.72152119202168       58.79665181292084
C           55.19476740453607       58.23299701629217       57.21213894076230
C           55.51728129283008       57.32190302725766       56.02104553197701
C           56.79845434693304       57.72309533205785       55.32951430350632
C           57.83082028484934       56.80641929000234       55.17308385734286
C           58.99108203493387       57.14913918631746       54.50207366062352
C           59.13704921802041       58.41672918823873       53.96593345288927
C           58.11678811709411       59.33847033263989       54.11750675633603
C           56.95995783588781       58.99385765263116       54.79089756019576
C           54.39753984672684       57.30239563114231       54.96655830953313
C           53.03809340810434       56.75248241213140       55.43846888596665
C           52.13161240773107       56.67400614406005       54.23599534260860
C           51.18015963907082       57.66272181273717       54.01463175170273
C           50.34620864758050       57.61488803738791       52.91194144476005
C           50.45284487092730       56.57293569341745       52.00708460802741
C           51.40946853729594       55.59271243168879       52.20726729193647
C           52.24460979021055       55.64650850515319       53.30777815524139
C           53.20394941141384       55.41223656096299       56.16612322195407
C           51.90336536059166       54.62273279394332       56.40604904242580
C           50.74014727170548       55.52191311612195       56.73405254008367
C           50.72969854124285       56.31787858627612       57.87336309217024
C           49.65049471127847       57.13902532527892       58.15222725257033
C           48.56542155420797       57.18600699905809       57.29328995165020
C           48.57006182038494       56.40693341729438       56.14986398673385
C           49.64697254127770       55.58126886144916       55.87837860929991
C           52.17103267079004       53.60196270404268       57.52234573687493
C           50.98509775213322       52.67238758884867       57.80152625228753
H           69.89690466453882       56.56770120842486       51.95433848406445
H           71.45159543129483       55.30854749651245       54.25451642657213
H           70.82827022589571       56.95747932113758       54.25807515725700
H           69.03705111606936       54.53994771589090       53.83141264851448
H           68.33012297830258       57.25638816602351       54.99646549912013
H           68.23478715882601       56.92423205211147       53.27222538040790
H           66.79543898047000       55.33235669875093       55.43496959171271
H           65.58228282335911       57.21558017273239       53.36302850680623
H           64.72262029586432       56.24796685933475       54.55033930618188
H           66.56194997496968       58.61355271172944       55.10046778761443
H           66.82667169099011       57.00028778906215       56.90414374686704
H           64.86998112896985       59.15890514518068       57.77585239427359
H           66.38662015135132       57.12454092538388       59.20992267446505
H           66.98759396631056       58.71267071903053       59.66010301754905
H           64.75212205870017       59.44895145593396       60.30934943769828
H           65.63565137977173       56.77185177083326       61.47651056223575
H           66.27681990548288       58.35048333496825       61.89006381889511
H           63.41938143178373       57.41086515516086       62.35463590087252
H           65.03239003964951       56.21595531586298       63.74492764580631
H           65.85711965033563       57.70918086018893       64.16085148957933
H           63.72646424527544       58.50168695124321       65.27950273828347
H           62.42414454492986       57.09615850016161       67.17067642610218
H           61.52686303644654       58.86710118211761       65.44026845014380
H           60.06903283633306       57.88915413062002       65.44535826061035
H           60.37558990353530       58.06947296971617       68.10992025492013
H           59.04265859234565       60.30057268921278       67.97062361189481
H           59.15063118257470       60.08908122349597       66.22381244264372
H           58.30496677894159       57.66328689985388       66.67031511628353
H           55.89737818806262       58.38822947479516       66.94434360077842
H           56.46227465354387       60.04533191447359       67.13492519972716
H           57.50936117492509       59.92536959559474       64.86534187083406
H           57.38329355565768       57.27319578577328       64.93101346904609
H           55.77886718482205       57.52449191059074       64.25866248345960
H           58.13538358714763       58.94647047740260       63.01047289677516
H           55.75801029779373       57.61178080602520       61.67479624692027
H           55.69821642849800       59.26819119149805       62.29947120412594
H           57.77535213049784       58.27648369023474       60.31142616428551
H           54.96597348700561       59.04935817647654       59.84654563466759
H           56.08307859639549       60.08376978437975       58.96539483037888
H           57.19688885580830       58.14592236770005       57.97146410900123
H           54.18605776750462       58.02300571081951       57.56813131313853
H           55.22538336553204       59.27576950803282       56.89714326314365
H           55.65121024138678       56.30435202778068       56.39843262041961
H           54.24157373763997       58.31444286089327       54.58483588042347
H           54.74386083627940       56.69231017073451       54.12729282499573
H           52.59197633462905       57.46971903904223       56.13570002252627
H           53.88871862205458       54.77365385110014       55.60425656825618
H           53.66555743191050       55.61248548908092       57.13488418167660
H           73.33545706667293       55.17051386213949       52.61304372996388
H           75.37882346675595       56.39184516561659       52.03028386937649
H           75.23969180771387       58.64785566639207       51.03984206881697
H           73.02838566194548       59.67055896195307       50.63837941076019
H           70.98180180636211       58.44786555736862       51.22447448665357
H           68.72554619951745       53.02628758332116       55.52108634628920
H           68.95696994826031       52.32460414627755       57.86281418802705
H           69.77611336988932       53.92696038325941       59.55847004790161
H           70.36828757678998       56.22274573471486       58.88185528471090
H           70.17462478793757       56.90785869647307       56.53385873949464
H           66.27717615387529       53.19074430599272       54.85704278357185
H           65.91711226799498       51.42646765195792       53.20207905863996
H           66.01892446354259       51.95585928401310       50.77962805511569
H           66.52918544820848       54.25613577873865       50.06190220749157
H           66.87330914585560       56.01950568776885       51.71724566149365
H           63.14218001866271       57.48406667178869       56.21844341273199
H           61.14542493184351       58.84730649077753       55.87328096541820
H           61.28705544497650       60.97228470082976       54.62171738828496
H           63.45910189227153       61.71435639355857       53.72011793198807
H           65.47314066791495       60.35148792275041       54.08003763895041
H           65.07954337978130       56.82957500415004       57.08203001871024
H           65.43019493314938       61.27409050917227       57.07416102437512
H           67.08829247994512       62.96574590402560       56.41785261740829
H           69.48928917302553       62.39312328642904       56.36635266164239
H           70.21769580431655       60.12138387757038       56.99311512293333
H           68.55886775569729       58.43627902604754       57.66610118431632
H           62.63247563688208       59.55072294627722       59.44711581046369
H           60.60983990398530       58.49600004640004       58.53407149007657
H           60.50212470053077       56.04210805409108       58.27471009098940
H           62.44267120378245       54.66051965982524       58.91826819810267
H           64.46566585132517       55.71502691921124       59.81269803753496
H           65.91871499255616       60.03591849503197       63.43393945807902
H           65.25414212456806       62.32857138289294       63.97376474834879
H           62.88220443225514       63.00048515425036       63.84672071100088
H           61.18276639463522       61.35239619996090       63.14112975082057
H           61.85768503579687       59.06230712332702       62.56257166774101
H           65.01644712937609       55.00350149901858       65.89625873784925
H           66.32547712893155       54.43239478754757       67.88570579404536
H           66.86827074478036       56.16495051774648       69.55809289863915
H           66.08160965757607       58.48228980491970       69.21460018411720
H           64.76716120714940       59.05485728421006       67.22373426497543
H           62.18785984406198       56.82440297167157       64.17698858316153
H           62.98344051423522       55.55390741580126       65.10320462416206
H           59.82402563204617       55.79562445060128       64.75897428255263
H           58.47756297422430       53.81198194288201       65.22974392175854
H           58.81919087749279       52.53649304082930       67.31664392624556
H           60.52057084593471       53.28870955712808       68.94010593733255
H           61.86365375748363       55.29915566229313       68.47702824899496
H           61.53124791283230       61.04381999252958       66.08812644825476
H           63.31492290715676       62.52941631353865       66.85493175166273
H           64.40640456505736       62.14298842139365       69.03668341953630
H           63.68477658469966       60.24510350995573       70.44239958295962
H           61.90091792621028       58.74491122206383       69.66699105662472
H           58.65897656013696       56.15855616586804       68.36421970269502
H           58.31727952952996       55.41190245559128       70.66835984584961
H           57.27405140987699       56.91769950620503       72.32450023784838
H           56.60275063007815       59.19399134714499       71.64618191430372
H           56.94030141722382       59.94575488029457       69.34365890611573
H           54.08435396373642       58.52749579470971       65.57831904151219
H           52.02656729576434       59.74579812037516       65.08164269760083
H           52.13184658312050       62.00188762470481       64.07371803727200
H           54.32667368536652       62.98304391624298       63.50955263196773
H           56.39293943817935       61.74428923829230       63.98529077538451
H           59.98757149223177       57.86218768557894       62.20065132327981
H           61.21711036544724       55.80956665998452       61.64770711313587
H           60.07231123376757       53.61675387096803       61.76599452490967
H           57.68579395369159       53.51803646345380       62.35268792730154
H           56.44779660119422       55.58026074567990       62.86201322722517
H           59.64976739585681       59.62719919311587       60.41608489882950
H           60.71620037607165       61.82063198045049       60.69220908767261
H           59.35667765747101       63.79386653243061       61.28709401534492
H           56.91448540401983       63.55286715219192       61.57115379926184
H           55.84462929616093       61.37269062537412       61.25107901368894
H           54.07114985212299       56.93957919293962       59.72902518154814
H           53.85696801036207       54.67816339707492       60.62008560690137
H           55.67629339861452       53.03269767805649       60.28677616830579
H           57.75163442803708       53.72819249601225       59.13505763805104
H           57.98399302431281       56.02008677958845       58.29607042811060
H           57.72452762428734       55.81013552116864       55.57943880099675
H           59.78896329069867       56.42877873441913       54.39736412055132
H           60.04312602987430       58.68296803644599       53.44036937604917
H           58.22048327984287       60.33434928380421       53.70971980193739
H           56.17663857764678       59.72876434965874       54.89097449531072
H           51.08098335555376       58.47923835790024       54.71719771997928
H           49.60830771123756       58.39150560917919       52.76352044569420
H           49.79342456198304       56.52172811616174       51.15194153906619
H           51.50782962889826       54.77450345933991       51.50795844136412
H           52.98223963800689       54.86852470260948       53.44058204815465
H           49.64812737702817       54.98143889551675       54.97877116493557
H           47.73447142073601       56.45345426627870       55.46374332632887
H           47.72889390107168       57.83390936514290       57.51308132928538
H           49.64113639348345       57.75394221328084       59.04141403638071
H           51.57288423264107       56.29219329995762       58.54770783162864
H           69.69002891353537       54.17917215668042       51.77539741305514
H           70.95995542203295       54.65979737105972       50.65734391226087
H           71.37831949108565       53.91255641500540       52.19951784026840
H           51.64718896094391       54.08006338747133       55.49004277396420
H           53.04236527127575       53.00460456659854       57.24483138934855
H           52.42275447914685       54.14261976226941       58.43495841188837
C           51.18807988377117       51.87876739566051       59.10196670817633
C           50.77871526291362       51.69205739347536       56.67518002328892
C           49.64896079633164       51.74039179824923       55.87044690867467
C           49.44183436530865       50.79592924285323       54.87867229354766
C           50.35498034133077       49.77340140205227       54.69326069832909
C           51.49979038881971       49.73141024623966       55.47003936035590
C           51.71234538432978       50.68679935372410       56.44370948144009
H           48.92044674176149       52.52567791246413       56.01878466482678
H           48.56534951111883       50.86561465814523       54.24808757635083
H           50.18606827383429       49.00743412815467       53.95150564385396
H           52.22586825556154       48.94887784411466       55.31278712396430
H           52.61518878903589       50.64572643298155       57.03508920432719
C           51.03662367152067       52.70984949447897       60.37790228986704
H           50.45182548033485       51.07092625871896       59.13486864145008
H           52.18092344387050       51.42470088051677       59.09956566252161
C           51.30592129824651       51.83103281837677       61.56250362265259
C           50.26823576377686       51.16739895421176       62.20487254732519
C           50.52789185279649       50.31073054452492       63.26060385383617
C           51.82894448562553       50.10155921622705       63.68593593794882
C           52.87033072167323       50.75456508893635       63.04859833934827
C           52.60752041700495       51.61163032908878       61.99429927927251
H           49.25201727063537       51.32439618241353       61.86506439062373
H           49.71864067117635       49.80055983759698       63.76482916004208
H           52.02287089895462       49.43613629438561       64.51404963006922
H           53.88833558251206       50.59811047779134       63.37799650443323
H           53.42159475274257       52.12440163351498       61.50194899107711
H           50.08532265651800       53.28753345724629       57.90502391279233
H           51.73956032743445       53.54326921797706       60.37200018151621
H           50.02393028607356       53.11116313200204       60.42792926106682
C           28.65208481808236       54.34354131549201       43.91954059833832
C           28.11503570542999       53.63930882601703       42.84926950442191
C           28.74040615095820       53.74199610152382       41.61207628805025
C           29.86317917261070       54.53155935651574       41.44807181808194
C           30.39517196975351       55.21789993388469       42.52609617286124
C           29.78669873593753       55.12090420436967       43.76461364745717
C           26.88895963305439       52.77893248608746       43.03135918308570
C           25.77305098714857       53.19710377884346       42.07109459148723
C           27.23766107195680       51.29576925951056       42.84186641191774
C           28.15422326108931       50.77225676706005       43.95434270299162
C           27.44431664650572       50.78892743554996       45.28530462480359
C           26.32004599196842       50.00207158439402       45.50910301237500
C           25.68260908054301       50.01052629835920       46.73604375411580
C           26.15983661109591       50.80356658229794       47.76574186450308
C           27.27864500724926       51.58971853683664       47.55614500794917
C           27.91412519856535       51.57923491891934       46.32611714529523
C           28.64141906652469       49.34672134786366       43.64489972413496
C           29.87936758194065       49.28760665251380       42.73221855190260
C           29.96279532754517       47.91114667991398       42.11858074909663
C           29.89360066011441       47.74686872813054       40.74081005854956
C           29.94843563936433       46.48666912370460       40.17037210052810
C           30.07390117774193       45.36513121865741       40.97223802691371
C           30.12889447861095       45.51458993887807       42.34758327477169
C           30.06913318479548       46.77485657495830       42.91403892521639
C           31.14870079939092       49.63603728431170       43.52171128178921
C           32.44518608922414       49.51051530733063       42.70402017014671
C           32.46172930517666       50.48537469597640       41.55444428704303
C           32.43338361290938       50.01970132434450       40.24592452320100
C           32.46789869149652       50.89567341452766       39.17495026088202
C           32.56495441519233       52.25810047174563       39.39697471722454
C           32.59209592994471       52.73634978569849       40.69546023883228
C           32.51598923621430       51.85950574424564       41.76188979348571
C           33.65229245229789       49.68688036307537       43.64047626580079
C           34.99874288167376       49.23473602417279       43.04544123073065
C           35.93403380504879       48.81456535686142       44.15876456988590
C           36.21625376162145       49.68689847842077       45.20684276368401
C           37.06319977882622       49.31529293253011       46.23444616206752
C           37.64867850726692       48.05937260248997       46.23589344226363
C           37.38226823547003       47.18393654027167       45.19838726079488
C           36.53571365166544       47.56309544516890       44.16920196687659
C           35.68984980376916       50.31641065554719       42.18372209097144
C           35.91743149992908       49.92080171504403       40.71624507616487
C           36.52141582171640       51.07633087506113       39.95646484363811
C           35.94950998826604       51.51215834897914       38.76807429323802
C           36.49993377994796       52.56406739248197       38.05760720308810
C           37.62350440879139       53.21542834490923       38.53540727802019
C           38.20936231814234       52.78322704072822       39.71245542003378
C           37.67122554490145       51.71570111971262       40.40792875215103
C           36.82002296633402       48.68606921783105       40.58301859191507
C           36.88363467958653       48.14430272755763       39.14900796019821
C           35.51101459527744       47.93077994737946       38.55758876519962
C           35.19677711092687       48.44447675073991       37.30566835488430
C           33.95657271884730       48.21813602742115       36.73469970270990
C           33.00695583394359       47.46840390548376       37.40698097520067
C           33.30881719739919       46.94627940627323       38.65372894660189
C           34.54934704714699       47.17667985748963       39.21996763182113
C           37.63722602102746       46.80349687439060       39.05089503415605
C           39.13375690913245       46.87631371489237       39.40209387326869
C           39.89600858621215       45.81720652980825       38.64440092495243
C           40.94983185728390       46.14738247076894       37.80426027354748
C           41.66400311932411       45.16349024486382       37.14270852539061