3795
 energy: -5103.734310575532 gnorm: 0.000884080069 xtb: 6.6.1 (8d0f1dd)
C          119.98998400336819      122.60533030037057      118.02477726868729
C          119.61689598660780      123.71201949030502      117.08077449356632
C          118.99745820281612      121.44057224927683      117.91674279476271
C          119.48430756462034      120.19232574768932      118.65665410402525
H          118.03873521224432      121.75650553246665      118.33181060384007
H          118.84751414011676      121.19301783408024      116.86442579158889
C          120.72812907045142      119.60652528055509      117.99376923356591
H          119.68734450077008      120.44247145447481      119.69799727360245
H          118.68691055301795      119.44836095598525      118.63469499277262
C          121.18526915906180      118.25473620297012      118.49929301866261
H          120.55868989165236      119.50711697585459      116.92053676268885
H          121.57792325986948      120.28163221609346      118.12090427144302
N          121.10460348733855      118.03771927072096      119.80933718399358
O          119.86439640745964      123.49852931181476      115.79770053233942
O          119.05857646356587      124.73586594695676      117.42124082496173
H          120.43664219867804      122.67562186634984      115.63702085096601
H          120.01021228923108      122.99927963989911      119.03943469220683
H          120.99041367536728      122.27608145586989      117.74980865208657
C          121.64184275059598      116.84225664532629      120.42199441594434
H          120.83257409365017      118.77828199219097      120.44376447302402
C          122.49960991744916      117.16040449692792      121.63837668256251
H          120.82363629201529      116.18305695665798      120.73019751279300
H          122.23560029653052      116.33122312980908      119.66022367533110
C          123.67158841959628      118.08773200863388      121.32702760638630
H          121.87427982094044      117.63384277117942      122.39440672527289
H          122.87790770715461      116.22216185004235      122.04548017738425
C          124.64914723153828      118.11045568623560      122.49988667730538
H          124.18056403720968      117.74095987476231      120.42567669234903
H          123.29796479268431      119.09669141241469      121.13879574831576
C          125.71163017195771      119.20131059546259      122.40323785951732
H          124.07939890377442      118.27639057709560      123.41625766864510
H          125.12640610235015      117.13258402541490      122.57871092942062
C          126.58779059994518      119.08838353270150      121.16373614927139
H          125.23213001684928      120.18225262744750      122.39670920443423
H          126.35232530743048      119.15493079966008      123.28649994751383
N          127.57028055413623      120.15559338123629      121.16845215241648
H          127.11704954323511      118.13057762949526      121.13646445940931
H          125.97563382122939      119.16216336762393      120.25806716493634
C          128.66845105581342      120.13405668198571      120.42134969190155
H          127.33302747323020      120.97408654492082      121.71695928124663
O          121.62473272301941      117.41283032204345      117.71142852285246
C          129.57270344217329      121.34323782174346      120.54819992623315
C          128.89299258938038      122.60277848423128      120.00292566396928
H          129.83228632186152      121.49189587573180      121.59706854899206
H          130.48598180538164      121.14393000903657      119.98544120141004
C          129.87101261983028      123.77296416035841      119.90924264293129
H          128.49135611069835      122.39537928953968      119.00862927631692
H          128.05683307681443      122.87535110413958      120.65058838207325
C          129.15208013763115      125.09240194291230      119.61955482905934
H          130.40795732447344      123.87433184258749      120.85428598690018
H          130.60613328907729      123.57901238093112      119.12646812635325
C          128.25853619445130      125.02972583129670      118.39565865840825
H          128.52133830845395      125.36633873057740      120.46747225850197
H          129.89019455955011      125.88081751805744      119.46299289428691
N          128.86559495062554      124.74460035672226      117.24680809015089
C          128.16605123069854      124.71392411243519      115.98046491058753
H          129.86213115606461      124.53792774318953      117.21721266622906
O          128.93150191384530      119.19796529006378      119.65982536439722
C          129.05696383843497      125.24212452664651      114.86251996347734
H          127.84161515172281      123.69098721230203      115.75884380331593
H          127.27324281551422      125.33894723175621      116.08129129725361
C          128.32055526226202      125.31922292306818      113.52752569480617
H          129.41567469863284      126.23452326579540      115.14288225401573
H          129.92664346601177      124.58985863843756      114.76815241859313
C          127.92885911237458      123.94363793674324      112.99627595933617
H          127.42479576110101      125.93274753870486      113.65064734084648
H          128.96866408635879      125.81272602874732      112.80064021834062
C          127.21876051414357      124.02375311100582      111.64921533991047
H          128.82669806684757      123.33289489057073      112.88229272509633
H          127.27529656228754      123.43811861737653      113.70706904213999
C          126.71207648271835      122.64635011578355      111.23689645531232
N          126.28226403633339      122.65784118373898      109.85728660594984
H          127.52912209794188      121.92672128202440      111.36459718495897
H          125.89369054984208      122.34265844650615      111.89068302786168
C          125.40980708066176      121.84212231483832      109.24971508303442
H          126.87323640132118      123.22298466075497      109.25063452004329
O          127.04628076546527      125.24732984695483      118.47059913147217
C          124.59450377189623      120.93604129542251      110.14864693428980
C          123.56675810988250      120.09239214206556      109.39544530338311
H          125.29188690260501      120.29266100631979      110.68992484290625
H          124.08852539436523      121.56240504724701      110.88667337306734
C          122.77114030591532      119.22899653644204      110.37309210717395
H          122.90312305427271      120.76006189709607      108.84244030969067
H          124.08538250126549      119.46389951417216      108.67045777693981
C          121.72139355705569      118.34695328010271      109.70372348467815
H          123.45831975691941      118.59228811645444      110.93048812416819
H          122.26626553482497      119.87800127854362      111.09195818083239
C          120.83694754282897      117.64431294669316      110.72294320029955
H          121.07557256271443      118.97109253372072      109.08226428473500
H          122.18832143117663      117.59606735083301      109.06647200883748
N          120.09151087905008      116.64726708427047      110.23001868483510
C          119.21715914160207      115.88275823466331      111.10596414963062
H          120.33370555868969      116.25209854801416      109.32511101685489
H          126.38133997832917      124.72280141466186      111.70355288848143
H          127.91261095751776      124.38267016979709      110.88837451318788
O          125.29578939493027      121.85753819886654      108.02604627941952
O          120.76220967973353      117.98967267396321      111.89914516940694
C          118.48897297117563      114.76087680870921      110.37462718337133
H          119.81144594799069      115.46520045553335      111.92628767841050
H          118.50576396974100      116.58199574720672      111.55433728855139
C          117.76596012679148      113.82602100560288      111.35005621089121
H          117.77154152757285      115.17606967711210      109.66721567039291
H          119.21694576443909      114.18354350715411      109.80230330103960
C          116.52250188210417      114.46916668093073      111.96271907999655
H          117.47310468100721      112.92191135753735      110.81627522078935
H          118.45727321145350      113.53619560727449      112.14364606150298
C          115.92791807391879      113.67939933289666      113.12694326009883
H          116.76729225307848      115.45949242594756      112.34274953386911
H          115.76161787195677      114.59259230062409      111.19109712964033
C          115.26973456928494      112.36489105846694      112.70648467398303
H          116.70981001944754      113.47625655056085      113.86161399673566
H          115.17005403738146      114.30052395998312      113.60696894030163
N          114.49235743368433      111.80709219685993      113.79562623058730
H          114.57198903486498      112.53491700117257      111.88407377079409
H          116.02526286259582      111.63775268349254      112.39717993349005
C          113.14829058183545      111.72045856049402      113.78659600121129
H          114.97474802976942      111.69934832403769      114.67407831014438
C          112.51773140237894      111.33865548633302      115.11076073765649
C          111.71708220056414      110.03829120367732      115.01977761596085
H          113.26339914098055      111.27774450040511      115.90020785793043
H          111.84152929591151      112.15610392423184      115.36973811086872
C          112.59045876666723      108.78521828997040      114.92931360237624
H          111.07305465445225      109.96794732392095      115.89513795416943
H          111.08514128039391      110.08766895004207      114.13006708202005
C          113.46617408087438      108.53378351011050      116.16617390870462
H          111.94189822330397      107.91917410824915      114.77984574904954
H          113.24134909798863      108.86721831368024      114.05672667171336
C          112.64745665109805      108.39898961363389      117.43310380262048
H          114.03919791995106      107.62080218948992      116.01383130715715
H          114.16084756206348      109.36211482785046      116.29826569370425
N          112.33316989146192      107.15289641658600      117.78930806818076
C          111.64400594747897      106.87973880011326      119.03597720886869
H          112.71755985368350      106.35944790163231      117.27789539627545
O          112.48070462037225      111.92634243926001      112.78164057706928
C          111.53882570878704      105.38573318836960      119.30295520388093
H          112.18366229797029      107.37464376629275      119.85238960676041
H          110.64149379920435      107.32030162012423      118.99584222932111
C          110.49873957943315      104.72390427977021      118.40445577640132
H          112.51199648930645      104.91701899090702      119.14947539601486
H          111.25501851845178      105.24588223780361      120.34644746895403
C          110.33117807904627      103.23871199654660      118.70808043198204
H          109.53882651658198      105.22194254223398      118.55228695353114
H          110.79068037884704      104.84334057361248      117.36094309652796
C          109.21180602337839      102.62786596432213      117.87210311771798
H          111.26103139937183      102.70588695779114      118.50293647942043
H          110.10129300790531      103.10976345413837      119.76864862124417
C          108.98284430008083      101.14487435177003      118.16725105254089
H          108.28070831541464      103.16450179033561      118.05842979804488
H          109.45395302725775      102.71885763296370      116.81291051701167
N          108.49374889880364      100.93590144562785      119.51394575277645
H          108.22885267408311      100.76861156965658      117.47394147852245
H          109.91438712596101      100.59334790510177      118.03451697919718
O          112.29173397078934      109.37287524513476      118.10163999438174
C          109.23814003122904      100.57040273660296      120.55292847035193
H          107.49588003325931      101.11226118480606      119.64301569281066
C          108.52890149938436      100.57400851884682      121.89399108092962
C          108.44468656467582       99.15513453596441      122.46340659915695
H          109.11904997640501      101.18852924139760      122.57725187748686
H          107.53531241977069      101.00678754634247      121.79681618240393
C          107.57722130532085       98.22778191731297      121.61315753207701
H          109.45446540234610       98.74208041575649      122.50961347759768
H          108.05005162278191       99.19658607918475      123.47955788819031
C          106.08476107684045       98.57840999619074      121.66720623504509
H          107.91936954057581       98.26229571235598      120.57609289891639
H          107.70155325372244       97.20145697107318      121.96621546272844
C          105.34561725626547       97.60086518098635      120.77862980607644
H          105.72355277986733       98.47288029851818      122.69013520692840
H          105.91506453679601       99.59294845947315      121.31341652783884
N          105.21727047446961       98.00500947668229      119.50297779592896
O          110.43120713817878      100.25336464919896      120.47534669082225
C          104.74752029537521       97.12736175211742      118.45352033949898
H          105.55595164958446       98.92222062735938      119.24587178011474
C          105.81489694216395       96.87259517534335      117.38298698635197
H          104.47222823209509       96.19264565799722      118.94827990455637
H          103.85274562228969       97.55249531180014      117.98647628531143
C          105.82849644940673       97.95745069287140      116.30813227320760
H          106.78977963926553       96.80609547003347      117.86832426145853
H          105.61399844100238       95.90955211783096      116.91115782755132
C          106.95973661842572       97.78759019795191      115.29439647748191
H          104.87589803650629       97.93640280050889      115.77288133055110
H          105.92746392686205       98.94216465022606      116.76855721928729
C          108.33585241398137       98.12167567573583      115.88599212257432
H          106.95051906986888       96.76949002585852      114.90191881926278
H          106.75301890737354       98.46186703679236      114.46247240694642
C          109.22549942267203       98.89340642475456      114.91583917015717
H          108.20012891237926       98.73316253381527      116.77804911971636
H          108.85904601326833       97.21380537607112      116.18642585135397
N          108.58422768351008      100.12131535907680      114.49213814201275
H          110.18245436897251       99.12538603874822      115.40126861760095
H          109.43811667536811       98.29540937132759      114.02329244864484
C          108.88801547089062      100.74385257251184      113.35252143527069
H          107.81778919266249      100.46860376174195      115.05684415912289
O          104.92959550784593       96.51979280490708      121.18209101261392
C          108.00189625230387      101.92143808879929      113.00490262844404
C          107.07660370644973      101.56487124404592      111.83511813876440
H          107.40589401693316      102.19522415009111      113.87283025942843
H          108.62839525497290      102.76369803717877      112.70633698489411
C          106.12214754102338      100.43046960738846      112.19335925720156
H          106.49963521734063      102.45237956304072      111.56882371540449
H          107.68444227882199      101.28164816902202      110.97315091226659
C          105.06633228696008      100.15386322501249      111.11934985895145
H          106.69136855154386       99.51372137212516      112.36737045641756
H          105.60086498176985      100.67920200655256      113.12129388001520
C          103.97384103933582       99.26964383541353      111.69818814439833
H          104.60101607900863      101.09463206123706      110.80866269258183
H          105.50606994629472       99.68835545067088      110.23840540867141
N          103.57268806906313       98.23992759529357      110.94205096482233
C          102.55709440998810       97.31866189844590      111.42018006599871
H          103.95771260427969       98.06498813374402      110.02181811726807
O          109.81711500251023      100.38858945148658      112.62831073632481
C          102.55042753037807       96.03042098690985      110.60870311830105
H          102.76898896550574       97.11613169270328      112.47528165093834
H          101.57252253186546       97.80079587517403      111.37384964422550
C          101.87328362385125       96.21676948004493      109.25295082424502
H          103.57959918810772       95.70100938301577      110.45737912920067
H          102.02897096020799       95.25823408881691      111.17582260617549
C          102.05719974477232       94.99046495186457      108.36270383627313
H          100.80852519556760       96.40715871397425      109.40315640509117
H          102.31196124405321       97.08462538017139      108.76294953383939
C          101.22701263049449       95.04984722852173      107.08019023526259
H          103.11462502203199       94.89090459806560      108.11127152700206
H          101.76622872364375       94.09570481575970      108.91731176349681
C          101.51569478802537       96.27936986350707      106.21405282350416
H          101.42448538517736       94.15591855988291      106.48480701116372
H          100.16521740670046       95.05812663320890      107.33160732832441
N          102.90330206921419       96.37327811790702      105.81605768008077
H          100.92556212022930       96.21725570938152      105.29612227429028
H          101.25092995988911       97.19359709171420      106.74810092472404
C          103.33861734862050       95.92788960519670      104.62827152534287
H          103.55606098635774       96.66578347517340      106.53267735787921
O          103.48951068344225       99.48220092254347      112.80594367807711
C          104.83072130983214       96.07587112859885      104.38625285174709
C          105.67336821960178       95.23812500616680      105.35022680411888
H          105.02677816657538       95.76403323803908      103.35926362379453
H          105.09630073260881       97.12902363149027      104.48626010300764
C          107.15986426206054       95.28155510897039      104.99572669444147
H          105.53666703203980       95.59998064982278      106.37175103298499
H          105.33134563518495       94.20182841956223      105.31359784352777
C          107.72844546248355       96.69893062980216      105.02639993307054
H          107.71412560814760       94.66511452224368      105.70667083970440
H          107.31972243948279       94.84750215731401      104.00746971688713
C          109.24779285129975       96.70961148682122      105.11547890042978
H          107.44810481231056       97.23780217243390      104.12011026308038
H          107.32721687298286       97.24638700709990      105.87867275570547
N          109.75321102349879       97.89519613307272      105.48147653688913
O          102.58559654722320       95.47438383212601      103.77164176012424
C          111.17465590934785       98.13826666165861      105.61770973426687
H          109.12480200956495       98.67490346762951      105.65315114439869
C          111.55606897449664       99.53915512744767      105.15156912098752
H          111.46524756417125       98.00906455764216      106.66808740436541
H          111.68982517079365       97.37325785757953      105.03068822084724
C          111.25476689508831       99.77971530000067      103.67420421887365
H          111.01467156427488      100.26825335649576      105.75750052475132
H          112.62345031940879       99.67498603821031      105.32815565159237
C          111.67163570880759      101.18145017080822      103.23516386639174
H          111.78047001326944       99.03619106806879      103.07179920642973
H          110.18688481527849       99.64753471568946      103.49947905025709
C          111.23696125017641      101.50199630616721      101.80823644676984
H          111.22535626251833      101.91693808483909      103.90746695992351
H          112.75696626150311      101.27181738768903      103.30349852913464
C          111.79123979757156      102.84475831209899      101.33367198286228
H          111.59634317462526      100.72678482760995      101.13114443224272
H          110.14695828329074      101.52783529418689      101.75503610383169
N          111.27131607697241      103.94936802807054      102.11049684412934
H          112.87982026772596      102.85813893020914      101.41177454875486
H          111.52409814495724      102.99559564292863      100.28320396715127
C          112.02721713951479      104.80644795820682      102.80264789548862
H          110.26116538728843      104.03112042347111      102.13149901368024
O          109.94227755832992       95.72744172562700      104.87725705422932
C          111.26127608171662      105.93689564529281      103.46597157910361
C          111.21837346138837      107.14315217829298      102.51901706104229
H          110.24539532018835      105.61823306450640      103.69522028452421
H          111.76862249615300      106.21150805809975      104.39110438684327
C          110.41271679130806      108.31762289544888      103.07330558357644
H          112.23588153543379      107.47196366798936      102.30342720909627
H          110.76023578634074      106.83132748848428      101.57733805370961
C          111.13054454759352      109.12188341474857      104.15595538351278
H          110.16267024797015      108.98816718161220      102.24751332966278
H          109.47234717250134      107.94073174535110      103.47842199681777
C          110.17579407115268      110.06551385262937      104.87340982567892
H          111.54759420112990      108.45316259772702      104.91197068803551
H          111.95416795416783      109.69624330437068      103.73473861798990
N          110.73161317522583      111.18826705675677      105.31505475481495
C          109.99704172162637      112.26334847579419      105.94474879996974
H          111.70255659839324      111.37500563289666      105.06219952048100
O          113.25132226840212      104.72158479703511      102.87494893149260
C          109.35066309720072      113.20000106221104      104.91831292205420
H          109.21926566033599      111.82713020810480      106.57767064402400
H          110.69264932626554      112.82162785620898      106.56929160789691
C          110.37683926717801      113.83417536356177      103.97990425949209
H          108.64147396635393      112.61652057807071      104.32966373905137
H          108.79249474596929      113.97159394079590      105.45130788399209
C          109.71509530317276      114.50787673903946      102.77807599211056
H          110.97444377322546      114.56271649407149      104.53018627658818
H          111.05115006683040      113.05744479008892      103.61544838788399
C          110.74346342289083      114.93987061411330      101.73487405852296
H          109.01967654290812      113.80355913328714      102.31779142725233
H          109.13436867663978      115.37268966787543      103.10524965215420
C          110.08817840284973      115.57018384211713      100.50528723142699
H          111.43275867938183      115.66024246900875      102.17870622421842
H          111.32005560140536      114.06866261322628      101.41532432172711
N          111.06326898554346      115.80121819717189       99.46305718858144
H          109.32989327179821      114.89957870583133      100.09211394635783
H          109.59788856727187      116.51033310658377      100.78006542399919
C          110.94060680921305      115.35288853212504       98.21118525024563
H          111.88064069071524      116.36272869684547       99.68614971381743
O          108.99095146180751      109.77514719324671      105.06308449253750
C          112.17521877228617      115.59034117772431       97.35823239179781
C          112.17433544724571      114.80021412452463       96.05076050506945
H          112.22518322146946      116.66279169374498       97.15617531853491
H          113.05187258253127      115.34134962978759       97.95566418673575
C          112.66657525907505      113.36209313261284       96.22104429168675
H          111.15955107433621      114.78685362006864       95.64752360384868
H          112.82102467635015      115.30167620512955       95.32829686689702
C          111.75962142414735      112.54460523237631       97.14446214827809
H          112.69999705807081      112.88021713318513       95.24053700466668
H          113.67987345542880      113.37028627169883       96.62926021501033
C          112.15285679931833      111.08525569289050       97.14104261507310
H          111.82868460702201      112.93294802587859       98.15990966696022
H          110.73101538674003      112.63191288783005       96.79628049056721
N          113.11019387421297      110.77355422614757       98.01509734925769
O          109.92013535093884      114.81381861351603       97.78665513791772
C          113.66544016150421      109.44759656845682       98.17340596541000
H          113.40495670475357      111.49152799015754       98.67883847155302
C          113.35046861180673      108.85860009018745       99.54836091917720
H          113.24808811579129      108.82830128202295       97.37744537783664
H          114.75192421127066      109.50366610501398       98.04797116768111
C          114.11789719460548      107.56447571795798       99.81590061407626
H          113.62269617890600      109.59844318043037      100.30494240489909
H          112.27635748106167      108.67812489438857       99.62932466007761
C          113.72293952149823      106.42216081193502       98.88398468462213
H          115.18936679535764      107.75840356482782       99.73858503857929
H          113.91534000239344      107.24368457817289      100.83877773770149
C          114.34141010059787      105.10095743896483       99.33049230719116
H          112.63635676049900      106.32355363998946       98.89137114404460
H          114.03580742631290      106.64177781134937       97.86162904056138
C          113.94742986103211      103.94305945669183       98.41721178536294
H          115.42997943676821      105.19080137471275       99.34127447394816
H          114.01313594124726      104.87127768398494      100.34480616286976
N          114.41299003062466      102.68194274668672       98.97778625587759
H          112.85698355613626      103.88757096682626       98.34806696632602
H          114.33442716053379      104.13507293589902       97.40068791801738
H          114.15924718296674      101.91317796110047       98.36844526450044
H          115.42456909469739      102.69400970209686       99.05169348307462
O          111.63557267492257      110.26530152720154       96.37576160759551
C          113.19828433958118       98.50809545580019      116.93217842458800
C          112.53625156556225       99.41507166199435      117.94062452204084
C          114.59145991203135       99.00345343875711      116.54916454324643
C          115.17329841957159       98.22509196823783      115.37229672443198
H          114.53899507800689      100.06117005167656      116.29254713311045
H          115.24942502683389       98.89470939183227      117.41403368744591
C          116.56660290025427       98.74687298242598      115.01843979540764
H          115.23030460993097       97.16493427850661      115.62781005331581
H          114.52124692729249       98.33427516406918      114.50433705102029
C          117.18265142150189       98.00605940147913      113.84033429021595
H          116.50101248877201       99.80783058860247      114.77552447284565
H          117.22520387955008       98.61097106672420      115.87836744005803
N          116.92712586162685       98.56543119686995      112.65389444867974
O          111.83831871467682       98.75793066270710      118.84699657488771
O          112.61731058591673      100.62507158275530      117.92876236178289
H          111.32443056172647       99.37351900622387      119.46643529641068
H          112.55970520120944       98.48649838348074      116.04435747252428
H          113.24958984122158       97.49713825859946      117.33742106131994
C          117.50669049081988       98.11879339453594      111.40326630473125
H          116.21797279701379       99.29033878521588      112.58469216291721
C          116.48796571147449       98.18771518573804      110.26860313143519
H          118.36703065790132       98.75751879379406      111.17043777940729
H          117.87683905023927       97.10003345218307      111.54401408458047
C          117.12485598588863       98.11853524269871      108.87914990375613
H          115.78172077418226       97.36298363599266      110.38074362623502
H          115.93034058004638       99.12174352088419      110.36267976834408
C          117.89473946499308       99.38470687890357      108.49834932682163
H          117.78993462360901       97.25490156836698      108.82451467448877
H          116.32878742385478       97.96727965662973      108.14726123539324
C          118.24299211375040       99.40405303208776      107.01005364445818
H          117.28036884139416      100.25708531161533      108.72947661663774
H          118.81543654138764       99.45846748681363      109.07909903443036
C          119.06371626538291      100.64085548538164      106.63780600946717
H          118.80623618433648       98.50688113115228      106.74764837467237
H          117.32432848676916       99.40632786839269      106.41904103901064
N          119.18346079186050      100.80106797332280      105.20670340615111
H          118.57356726043160      101.53172055919887      107.04441223583208
H          120.07349541451489      100.57120078994366      107.04793990765552