3795
 energy: -5103.144167448611 gnorm: 0.000927580073 xtb: 6.6.1 (8d0f1dd)
C          120.01346776793363      122.64474076859530      117.99341533166003
C          119.61408583948339      123.70843486604385      117.01031473600030
C          119.02106592850616      121.47640694802570      117.92489983605078
C          119.52385379827601      120.23017967014985      118.65718157565230
H          118.07035942867525      121.79256662034781      118.36024639983751
H          118.83824327849237      121.21880105065796      116.87877981110074
C          120.75073323104859      119.63831932682635      117.96702460204895
H          119.74833227306870      120.47899962034791      119.69414213017522
H          118.72342812133844      119.48717153551837      118.65515674056627
C          121.19123908162224      118.27365878054439      118.45246551738909
H          120.56110483725509      119.55057607698301      116.89601360387491
H          121.60944538786542      120.30216814668169      118.08663705370495
N          121.16241335159286      118.05993556579162      119.76273171509844
O          119.94152970648676      123.49092549123212      115.74310550197490
O          118.96147598855298      124.68825542148905      117.29578622346270
H          120.55661058625469      122.70428488921556      115.62522302485002
H          120.03035335495460      123.07376042944826      118.99342573500586
H          121.01465008409679      122.31135371861593      117.72915650823056
C          121.68216010451432      116.84591898661532      120.35418076123304
H          120.90178832384461      118.79385097359933      120.41346027397532
C          122.52628581289174      117.13769786106494      121.58666891408332
H          120.85487930235952      116.18719861278078      120.63871820580719
H          122.28055622892478      116.34734318890489      119.58739437911512
C          123.69617642809386      118.07667940017836      121.30439957627117
H          121.88949329842681      117.59116644917781      122.34493908901214
H          122.90427925607800      116.19224386859486      121.97634274008237
C          124.67140113877682      118.07485037106646      122.47966769494595
H          124.20741045736162      117.75314837318533      120.39585366835429
H          123.31926540156887      119.08794806268372      121.13994423550258
C          125.72490626702928      119.17601098563684      122.40600790296182
H          124.09914547144643      118.21389074853062      123.39913295761353
H          125.15382231162583      117.09817971079062      122.53591809804544
C          126.58795061979004      119.10325649964081      121.15440041316614
H          125.23859149597482      120.15268348370519      122.43213771364559
H          126.37439015166302      119.10852884933375      123.28159575437022
N          127.55247630775554      120.18552960539675      121.17113424372759
H          127.13135213863336      118.15456712874537      121.10005786602814
H          125.96428096912119      119.18676737941159      120.25736792065652
C          128.62218977114787      120.19824594256478      120.38431221803367
H          127.31468001990567      120.98540421993656      121.74867632142080
O          121.58066007784744      117.42322303234219      117.64632761363433
C          129.52333943807332      121.40711226080026      120.52082687813871
C          128.82857969944166      122.66619719671611      119.99308469930959
H          129.78996810112380      121.54544512504492      121.56994876669594
H          130.43376322762606      121.21728521332533      119.94966332814728
C          129.78893233002910      123.85171051832481      119.91756710745557
H          128.43428514431901      122.46676263966320      118.99496284593019
H          127.98842406833168      122.91645046158150      120.64413047587584
C          129.04852799814037      125.15454595243858      119.60864372893103
H          130.30469749912479      123.96411185051579      120.87415756051779
H          130.54420696504877      123.66852106640319      119.15167759159104
C          128.17999010475651      125.06804375804057      118.36735278117017
H          128.39577850322459      125.41852564237324      120.44296768253518
H          129.77258856535502      125.95874311986701      119.46415943852642
N          128.81363180100735      124.75873322676124      117.23779373914263
C          128.13649033933564      124.71400562730642      115.96127787472280
H          129.81269213163461      124.55830604022326      117.22506913769020
O          128.85604150484437      119.29423223266720      119.57728639906243
C          129.04059252037879      125.25316735162326      114.85882858063431
H          127.83229698713833      123.68687366083572      115.73357780544343
H          127.23360349783786      125.32709371739718      116.04354566577695
C          128.32402368287251      125.32182693314228      113.51304918161749
H          129.38336345481810      126.24984702908313      115.14487410308729
H          129.91889486554595      124.61200126746922      114.77705749594878
C          127.94614464870307      123.94150628656075      112.98373376752015
H          127.42290762067782      125.93223884097034      113.61954871192107
H          128.97791359166013      125.81691231697941      112.79106542603301
C          127.23224601098907      124.01588599573421      111.63864165543860
H          128.84980621216783      123.34142383303285      112.86621068676241
H          127.29650271720794      123.43045816018761      113.69335891380646
C          126.74746576662356      122.63151839056935      111.22483767149302
N          126.30633913110982      122.64178488432441      109.84778289200126
H          127.57885551610305      121.92747632531967      111.33761804612809
H          125.94235276670727      122.30881522678527      111.88561449449030
C          125.43193553192381      121.82580989613341      109.25094127307577
H          126.89342731497632      123.20973072190451      109.23550863390284
O          126.96987204665531      125.28043893499952      118.41255099501888
C          124.60909043792009      120.93404098374145      110.16171421283657
C          123.57392076661712      120.10494143777511      109.40488944460643
H          125.29603774532555      120.28054231362566      110.70418725945630
H          124.10753498792273      121.56568191138909      110.89765779325998
C          122.77042957891454      119.23972039433451      110.37285966209248
H          122.91439349192244      120.78059672047003      108.85666865820630
H          124.08481949221539      119.47595587829537      108.67360849860815
C          121.72872775933081      118.36277218397505      109.68571141119352
H          123.44969386897685      118.59655670085702      110.93406111484235
H          122.25653723356169      119.88354603037288      111.08987776598089
C          120.83217567343989      117.65474832569619      110.68771232651177
H          121.09032724732901      118.98993002529154      109.05846419685024
H          122.20312765300577      117.61459068168303      109.04975284293546
N          120.10124785996759      116.65058360970535      110.18067772398345
C          119.23690191821014      115.87748725343081      111.05582804050962
H          120.37329268076539      116.24413962507462      109.28861063733196
H          126.38214359986357      124.69975706800474      111.69737271733104
H          127.91617561129858      124.38832733944793      110.87578922599734
O          125.31147425066713      121.82020833142650      108.02912168602344
O          120.73221442846445      117.99732558303739      111.85989249815637
C          118.50660549338163      114.76011089451659      110.32163676002932
H          119.83623566969706      115.45366927483803      111.87034720901671
H          118.52653031323297      116.57157006198403      111.51445997300098
C          117.77635104400771      113.83278734758086      111.29816867042005
H          117.79593175343057      115.17949105872204      109.60894357816608
H          119.23441384166229      114.17783199423471      109.75342124608262
C          116.53284778304051      114.48337036202682      111.90250200104244
H          117.48436386414446      112.92324934198643      110.77117352859096
H          118.46447402496992      113.54526833249980      112.09631554814314
C          115.96349532391076      113.73388533830982      113.10423009723607
H          116.76872746854215      115.49105683809012      112.24039672186916
H          115.76149458736475      114.56598259904369      111.13515880692040
C          115.33164197743902      112.38952386680248      112.74833175663851
H          116.75576816843908      113.57921887620037      113.84078065763283
H          115.19943834443431      114.36276268222565      113.56270256292504
N          114.55895857682995      111.87427824357033      113.85932710192857
H          114.63365982144325      112.50115437197290      111.91529852044908
H          116.10356012206407      111.66287166637655      112.47323696645243
C          113.22813655382416      111.64722619896639      113.79117092395643
H          114.99437471971949      111.92323123815444      114.76664359506415
C          112.56908065058671      111.34442328417333      115.12113426647137
C          111.71868786402079      110.07620108460168      115.06505938036548
H          113.30521862836720      111.28106313995802      115.91999862918627
H          111.92912781742348      112.20065952359855      115.34812494697650
C          112.54852547104161      108.79331662041150      114.97370748532744
H          111.08646902230727      110.03911968291023      115.95139191583327
H          111.07810088720039      110.13376808592753      114.18209537534842
C          113.44641795923231      108.52796963906779      116.19158224916980
H          111.87097144489088      107.94428409456204      114.84926868120637
H          113.18033468124379      108.84505629099719      114.08414791279516
C          112.64793840681941      108.38365629425520      117.46915774481499
H          114.01312495812566      107.61393522245355      116.02221309035893
H          114.14822055147607      109.35144982718907      116.31765885439675
N          112.33382834168873      107.13310927030219      117.81290156601739
C          111.65176360987530      106.84931629761556      119.05943044167122
H          112.71968682336953      106.34513687232351      117.29221902058910
O          112.61264899202349      111.68172548381767      112.74073000684065
C          111.54162232526075      105.35327528881044      119.31023431999678
H          112.19623986081349      107.33480041831145      119.87892747382733
H          110.65018322098734      107.29563422869369      119.03020286023418
C          110.50392703388771      104.70136853954249      118.40208785040350
H          112.51437683915896      104.88484227811414      119.15395260218628
H          111.25335775721312      105.20361076856757      120.35127533274908
C          110.32644181789433      103.21628680504608      118.69949214639587
H          109.54549700814884      105.20735183472981      118.54370905876776
H          110.80253626624412      104.82686928447359      117.36058592378924
C          109.20485991692013      102.61156042540131      117.86268559088192
H          111.25385504494834      102.68087008880649      118.49279684791172
H          110.09433268405469      103.08977353471118      119.75976336263770
C          108.96261808011589      101.13253937409337      118.16767724029599
H          108.27798354122292      103.15918988291848      118.04088791517256
H          109.45159172741774      102.69614755598357      116.80373043136373
N          108.47158486165588      100.93045298577792      119.51420691046910
H          108.20399010902871      100.76441195106986      117.47583056071325
H          109.89022408646267      100.57497599778091      118.03637056797882
O          112.29916023803985      109.34816047833064      118.15098066391822
C          109.22605785827052      100.59877178584793      120.55973450762546
H          107.47392144822567      101.10903000553375      119.63938164864108
C          108.50859761445174      100.55834168326730      121.89492707315075
C          108.35843106972135       99.11063762266781      122.37665034018055
H          109.12055093281492      101.10332299724867      122.61695713245641
H          107.53496662472688      101.04029508375598      121.82101063530443
C          107.44490736582291       98.27121220607522      121.48368376181746
H          109.34960805720034       98.65251477913500      122.39533354264823
H          107.96972101890913       99.11379264141114      123.39672505821147
C          105.97450778049091       98.69847823414675      121.55640811750494
H          107.79340439205862       98.33424106402731      120.45036813690764
H          107.51667618195924       97.22665878822653      121.79374856282240
C          105.15946001247137       97.80776662017517      120.63772434306472
H          105.60831416271728       98.57837820700765      122.57647797038125
H          105.86229392685584       99.73455182868921      121.24400446066961
N          105.22140583934920       98.16456883341561      119.33669391321543
O          110.42739544606387      100.32940554706407      120.48593774464798
C          104.73547374411453       97.30077009934487      118.28505837836744
H          105.68625203242686       99.02338861550240      119.08191290372312
C          105.82183741247695       96.96811123131972      117.25650604585739
H          104.38859267330226       96.39425085262016      118.78766804120336
H          103.88099014011357       97.76258182905158      117.77688115870860
C          105.90959177508356       98.00979496935292      116.14221643893008
H          106.77961613355592       96.88376998031019      117.77307990124264
H          105.60045701388877       95.99573017735771      116.81321244542416
C          107.08781207156740       97.77243185589047      115.19784275460403
H          104.98523962106286       97.98736834310213      115.56087182119963
H          106.00796275712564       99.01038254384554      116.56645727277461
C          108.43704976725178       98.13411616332063      115.83667291950724
H          107.08861808331301       96.73164420285285      114.87004482492600
H          106.93130143094980       98.39352800057060      114.31607252379054
C          109.32203366350703       98.96816141432433      114.91474736274141
H          108.26097785373415       98.70917517735005      116.74591523932851
H          108.98791353601483       97.23675557329709      116.12016503175549
N          108.64318794355523      100.17549587548591      114.49217126538817
H          110.25225241185599       99.23043998660540      115.43643779708667
H          109.58910892239166       98.40132752749881      114.01647721090703
C          108.95031457856895      100.81642814374806      113.36302058098627
H          107.87246220034949      100.51012275974831      115.06054929428055
O          104.52709338635700       96.84525048848937      121.02905577584262
C          108.05202889812863      101.98328705892993      113.01733179172260
C          107.11513030654278      101.61506171854765      111.85967908147141
H          107.46317595865574      102.25553701923155      113.89058767706962
H          108.66995846745961      102.82993922389853      112.71092033668886
C          106.19011995544825      100.46127196577865      112.23127845683352
H          106.51979252868716      102.49463248352623      111.60888356126807
H          107.71638577925533      101.35044961266779      110.98703413828368
C          105.11014476204745      100.17553517878925      111.18578935288001
H          106.78191830801256       99.55434757748860      112.37904927700191
H          105.69130082565549      100.69195184329558      113.17543853786398
C          104.04388747563029       99.27968267379946      111.79818844755479
H          104.62933235245781      101.11192604452185      110.88673960229067
H          105.53165431926080       99.71307463458027      110.29398019311539
N          103.57332669205040       98.29832035515736      111.01770086174818
C          102.57593832131302       97.37340064023090      111.52197203497389
H          103.92926381972705       98.13632956185802      110.08257741876407
O          109.89114135354043      100.47951514619487      112.64578908120329
C          102.51526350516637       96.11001212518134      110.67453336974279
H          102.83891105313697       97.13624868982558      112.55846500860766
H          101.59438646548102       97.86410508446525      111.53972374979715
C          101.80782206053335       96.35188689781282      109.34340911706327
H          103.53192458883311       95.76162099968154      110.48409611705718
H          101.99167061039948       95.33197546827499      111.23307456856951
C          101.91465918338989       95.13938730494459      108.42257162266291
H          100.75578672784069       96.58346806818534      109.52809291746242
H          102.26831178773045       97.21127675500071      108.85909595931558
C          101.08547655869529       95.27965459588478      107.14564390125375
H          102.96322447354655       94.98464339337858      108.16217097020852
H          101.57591070446870       94.24891515835891      108.95798106684329
C          101.44849095137077       96.50972207288444      106.30714027497224
H          101.23019088582794       94.39038252611137      106.52948728399262
H          100.02555590414867       95.34225169198419      107.40136548722792
N          102.84358700322758       96.54126977061124      105.93446670175719
H          100.87464417174536       96.48782732417997      105.37710200880494
H          101.21205108675200       97.42740086747234      106.85103459657128
C          103.26086390406881       96.07027876494497      104.74073567344766
H          103.50063326236297       96.76739861931900      106.66799610762386
O          103.63630152078284       99.44739233663620      112.93935797692824
C          104.76376905170217       96.12719011890545      104.50778609512835
C          105.59587816535984       95.42966737740181      105.58377751907959
H          104.95330831625928       95.66437987784822      103.53787257406422
H          105.05276871621206       97.17872206380974      104.44268753634813
C          107.08102951841717       95.38874197623657      105.22111360401736
H          105.47995315792818       95.94213580701295      106.54118990859826
H          105.23481155216864       94.40659408165048      105.70781223369251
C          107.66429144171825       96.78131076452706      104.97294399395554
H          107.63199086685613       94.91537014330230      106.03653829716808
H          107.23338138667199       94.77301508133692      104.33431696965125
C          109.18274316664488       96.77918640164988      105.08108983440952
H          107.41031284796971       97.11622084081591      103.96478683503733
H          107.25331605815481       97.49995467587433      105.68160526756057
N          109.69692504691972       97.95596626603788      105.49387641948235
O          102.49031102468918       95.68865160699502      103.88042975999423
C          111.12013910709770       98.16740406365840      105.62985481905979
H          109.08349354672195       98.73993465537933      105.68400536974940
C          111.53916270783726       99.55185476995979      105.14391154780111
H          111.41223974693530       98.04966651969696      106.68275136522243
H          111.61471734987153       97.38170478683796      105.05278678594236
C          111.23415673277277       99.78440177679148      103.66616605873506
H          111.02138610987951      100.30514095031286      105.74325337997381
H          112.61110078501353       99.66474324861235      105.31428101857009
C          111.65424183622579      101.18161996534027      103.21657410110690
H          111.75365303662126       99.03462123404105      103.06688160335474
H          110.16437554589642       99.65675747203109      103.49876968012154
C          111.20837801485904      101.50143042552544      101.79310541642991
H          111.21793348722107      101.92260970761845      103.89068743185915
H          112.74040590413202      101.26918289561917      103.27556772457604
C          111.74922190083896      102.84985138495212      101.31790976784231
H          111.56973515394903      100.72981288417839      101.11220945658819
H          110.11746148424345      101.51788510829087      101.74736617064056
N          111.23380490153410      103.95006278403484      102.10231734303137
H          112.83884779892560      102.86747092218846      101.38050322587668
H          111.46735036354275      103.00203167606141      100.27105608968073
C          111.99684098802176      104.79241329770841      102.80696689539214
H          110.22296701453600      104.03576751698394      102.12753819812335
O          109.87001965203858       95.81145656766427      104.82150047654450
C          111.24165867569613      105.93071148815758      103.46527336455560
C          111.17437251603722      107.11868210875043      102.49569695428309
H          110.23226671551386      105.61209415603373      103.72243938337152
H          111.76719023382340      106.22213743168223      104.37556881214728
C          110.38317726846380      108.30219367764995      103.05024002249107
H          112.18697998998014      107.44009805186933      102.24867787912557
H          110.69183334177076      106.78653320802830      101.57384297347087
C          111.12844640884811      109.12839346840207      104.09829859426073
H          110.10884163057972      108.95541330653757      102.21981408356100
H          109.45814679042634      107.93023984042155      103.49184805052104
C          110.17624839227634      110.03843439542213      104.86169938701181
H          111.60447444415972      108.47380731571599      104.83197847058072
H          111.91313650909154      109.72909183732308      103.64027246500902
N          110.72525016599097      111.15985966682314      105.31816712090499
C          109.98072158509231      112.21467729027084      105.96993094538185
H          111.69215933688579      111.36262410981261      105.06610165855439
O          113.21801228251346      104.69220399356134      102.88607774424955
C          109.33044112455536      113.16670636705817      104.95922225037367
H          109.20513337092477      111.75880685853109      106.59045975637856
H          110.66944571716257      112.76531169706848      106.60922371681652
C          110.35260247254669      113.80568485624147      104.01900457468300
H          108.61622272274599      112.59289146743819      104.36832926907341
H          108.78111964383552      113.93543695142139      105.50542758299424
C          109.68690482790159      114.49322446254192      102.82694468747881
H          110.95971875126902      114.52600348041395      104.57181921295631
H          111.02164464621313      113.03036386681563      103.64289928950996
C          110.71142308335332      114.92428642581433      101.77941408640346
H          108.98418983163296      113.79661619305222      102.36754663297953
H          109.11514725449499      115.36040889148170      103.16468143482120
C          110.05525285870480      115.57263464388902      100.55914542186736
H          111.41093389443871      115.63449841786120      102.22620051067993
H          111.27973920501901      114.05144383977249      101.45040442387807
N          111.03347451451944      115.82877842846648       99.52641228644890
H          109.30509732123768      114.90362230954773      100.12983702793679
H          109.55725441796459      116.50292234778718      100.85184012323063
C          110.92439054047755      115.37837843347154       98.27277714004374
H          111.85370453842870      116.38082002232790       99.76326169796869
O          109.00358045849724      109.72676902960762      105.06942667767588
C          112.16873083758396      115.61136777830065       97.43342909886057
C          112.16298161410241      114.83034046593556       96.11992215703518
H          112.23656191239965      116.68474842829791       97.24238245069401
H          113.03725926321653      115.34314746918496       98.03461560635517
C          112.64543602914071      113.38798681847312       96.28338458420103
H          111.14727960295811      114.82488637753875       95.71862159115159
H          112.81118076293161      115.33225241176646       95.39799888210516
C          111.73033020912924      112.57356721438944       97.20132019093249
H          112.67727763941998      112.91162358003685       95.30017592150524
H          113.65921938664468      113.38773954362529       96.69144316576023
C          112.12064590276715      111.11347684205904       97.20192959490029
H          111.79455152170020      112.96311702461212       98.21667196386464
H          110.70539783750607      112.66351962272991       96.84404702145235
N          113.09585820605959      110.81090429645172       98.06546358520643
O          109.91027249853855      114.84091047528227       97.83934209406370
C          113.64897946926834      109.48505835698343       98.21679218770157
H          113.39430554607044      111.52831796936155       98.72679068724283
C          113.35760270530014      108.90168123751140       99.59942823759303
H          113.21232872577789      108.86504859132130       97.43157497982398
H          114.73422081009274      109.53164288320183       98.06864186593745
C          114.12343660571604      107.60492214132724       99.85675201872098
H          113.64739492442258      109.64176586539691      100.34929293782753
H          112.28487147566528      108.72498515435261       99.69947279471717
C          113.70909401928627      106.46306602836853       98.93221187889966
H          115.19518728556660      107.79236524919681       99.76368230134871
H          113.93501340869253      107.28435868911006      100.88246402286914
C          114.30363272324091      105.13574496172630       99.39269616581463
H          112.62096833168302      106.38309222248158       98.93859718599035
H          114.02747323359164      106.66893456372360       97.90855807017353
C          113.90031172627678      103.97546455368150       98.48660359753212
H          115.39346981641062      105.20969081922354       99.41256073089772
H          113.96268524678615      104.91893520809619      100.40578590152921
N          114.29961895142755      102.71326023418966       99.09190983307197
H          112.81136073614385      103.95670590269567       98.37942864372768
H          114.32928110120821      104.13104561449016       97.48146557329414
H          114.04311453393558      101.93520045950368       98.49434190932921
H          115.30717276193610      102.69072651876827       99.20926222449083
O          111.59262302998145      110.28661481799470       96.46123096840962
C          113.19046349483986       98.55928541155757      116.93246815049044
C          112.52613300143581       99.47812877472592      117.92653244670531
C          114.57821658082892       99.06465911298574      116.54203875751172
C          115.18092541704118       98.27779438128267      115.38171867084824
H          114.51402492324264      100.11810317570588      116.26921696007753
H          115.23351852889733       98.98013306732678      117.41122172162379
C          116.56222372512993       98.83198408028689      115.02997155349534
H          115.26449807615118       97.22640838072134      115.65914495641591
H          114.53029983363774       98.35648658576297      114.50907115618662
C          117.21524659599179       98.10273795683845      113.86282543380334
H          116.47161979070161       99.89078689707047      114.77928556811266
H          117.21699840164129       98.72297162819757      115.89681699734118
N          116.90797366960429       98.61424624261366      112.66224221964009
O          111.84040496461517       98.83347759206251      118.85021446915418
O          112.59910689353953      100.68975239828306      117.89642847981294
H          111.33927243665129       99.45434833502881      119.46725117234089
H          112.55100433805734       98.51448945425091      116.04586355064242
H          113.25901681329964       97.55779824905864      117.35840136285869
C          117.51227211192574       98.16037865455938      111.42686774718777
H          116.17865282401110       99.31445385212893      112.57640711257423
C          116.49965011611408       98.17518115486510      110.28486756461794
H          118.35666810886353       98.81672050356138      111.18321497999969
H          117.90795707954990       97.15596368299947      111.59520435436754
C          117.14944624893116       98.12037058761679      108.90130884068861
H          115.82489041202697       97.32452713375862      110.40021055508802
H          115.90332873352642       99.08727587970738      110.36403358646818
C          117.85893576754525       99.41874270842852      108.51275230477489
H          117.85764772761641       97.29114639842818      108.86254093228254
H          116.36815913360782       97.92135496317046      108.16393950303855
C          118.23286195586114       99.43332729659026      107.03164046731010
H          117.19531124128500      100.26241708448401      108.72094278359458
H          118.76282913339209       99.54989743922900      109.10937264590969
C          118.99075010237364      100.70617491155132      106.64767723859167
H          118.85077685175077       98.56533378704812      106.79780453503980
H          117.32572599437472       99.37158344604332      106.42526063926361
N          119.15468241373998      100.81735845013085      105.21958759064901
H          118.43474532512798      101.57937356624819      107.01257011738832
H          119.98815662476329      100.70793418322886      107.09247397040393