3864
 energy: -5104.063522931882 gnorm: 0.000927837807 xtb: 6.6.1 (8d0f1dd)
C           45.06737056511853       39.51148842822111       69.92029526622800
C           43.69494390347763       39.66386768508941       69.76484965681692
C           42.88442486363575       38.54327073111364       69.89743570235363
C           43.42724836575089       37.30159617755449       70.17623580465359
C           44.79396506205490       37.16397051998516       70.34329976654929
C           45.61128626689214       38.27408625990369       70.21664824643648
C           43.08175417820875       41.01642295757203       69.50478907201411
C           43.43225065502533       41.97631582739952       70.64550241841135
C           43.52302365889386       41.61022079799326       68.16046336730068
C           43.25522387379040       40.68420665326044       66.96623130178858
C           41.84341325119348       40.15221223924954       66.94425663735726
C           40.74882324485784       41.00889619580558       66.94333511540545
C           39.46007184869037       40.51110998359260       66.87939054235866
C           39.24340991177117       39.14600673806741       66.80245625373415
C           40.32620751638706       38.28341565493482       66.79391515123640
C           41.61445226036948       38.78433072727256       66.86435228225521
C           43.50133116004850       41.41081902435478       65.63251725055699
C           44.98135778871276       41.59445945771915       65.26324298914246
C           45.05891197866284       42.55610590995416       64.10274888192924
C           44.57790268554979       42.19792556187247       62.84756536931427
C           44.62102582902644       43.09308696859152       61.79443584815981
C           45.13555391637730       44.36529478933196       61.98082251288238
C           45.60212080309555       44.73883940469206       63.22831658116459
C           45.56872028348935       43.83573547515119       64.27598643019111
C           45.63776601098537       40.24075163775137       64.93472789074823
C           46.78790411048163       39.86669116489600       65.88322379412730
C           47.00471091834551       38.37400125500164       65.85014844170435
C           47.33531664535268       37.71152628782757       64.67436609782348
C           47.46800738203672       36.33542145347544       64.64522960365171
C           47.28603859527664       35.59518785664893       65.80062662116701
C           46.96388314084169       36.24296962970740       66.98042246025051
C           46.81890173314397       37.61865087828964       67.00045529346764
C           48.05609657029795       40.64368467607530       65.51333394482599
C           49.19460933004675       40.43654269824985       66.52045220431184
C           48.79720669331672       40.86697669701002       67.90986908034603
C           48.33500583374801       42.15317624129444       68.16668761453722
C           47.98820498936387       42.54215813286996       69.44852246410041
C           48.11519124057001       41.65247768052433       70.50155246041133
C           48.58054032472572       40.37085334354536       70.26069448744892
C           48.90760560178850       39.98033371782142       68.97398979595259
C           50.44394079811673       41.20318826325082       66.05946045206193
C           51.67353743551946       40.92505635419518       66.93140414792413
C           51.97057758391696       39.44563167640272       66.99580277527969
C           52.16815092323922       38.69630807445008       65.84187473696720
C           52.43278495950823       37.34113457723325       65.91570032923926
C           52.51134623780158       36.71122628546125       67.14545714227552
C           52.33162041575152       37.44949610304237       68.30225033729653
C           52.06526297151887       38.80510563433062       68.22489902488961
C           52.93047645275768       41.64841385726357       66.41629578086260
C           52.82182125766458       43.17842977029533       66.30307177639665
C           54.11920609508941       43.74718783245120       65.78140945033522
C           54.14422344651150       44.47125706793437       64.59557544218792
C           55.32548736175568       45.00115784481071       64.10711458071644
C           56.50823241031148       44.81163967406526       64.79758312434527
C           56.49616968027934       44.10085926604157       65.98704699516786
C           55.31274284466613       43.57692476692930       66.47417975202589
C           52.43492083203843       43.82597485149537       67.63998322742685
C           52.46849108754434       45.36468010422022       67.62325362093914
C           52.09120160606098       45.86921365575114       68.99471294975741
C           53.01675323423317       46.54006450844550       69.78209924763981
C           52.68039431252018       46.99407088466616       71.04521857621188
C           51.40625171778565       46.78573619913996       71.54107311783777
C           50.47622144199565       46.10861254678115       70.77072294306177
C           50.81860319751854       45.65155063007665       69.51184254741146
C           51.54199904099779       45.94046630662733       66.54338744461127
C           51.43064145827937       47.47710584056249       66.55347785066478
C           50.24052789964392       47.83765547691097       65.69109010690636
C           48.96864642032322       47.70749007319068       66.24194696364103
C           47.82930114772768       47.94807872880473       65.49756428846756
C           47.94077659888578       48.35024623287759       64.17690232234575
C           49.19748153530480       48.48756843117931       63.61580131281315
C           50.33480790624311       48.21673222586123       64.35899995368941
C           52.74445740834249       48.14366463622380       66.13043380716850
C           52.67573076716964       49.67097808534498       66.25666960796701
C           52.41051500049021       50.08035831240412       67.68687170462233
C           53.31954102998233       49.79800178417965       68.69974076097178
C           53.08716892521974       50.21514054994672       69.99731918930307
C           51.93917783688906       50.92257650022049       70.30768124084067
C           51.02504620363012       51.20781625636970       69.30949576841684
C           51.26096056145381       50.78751761244548       68.01272304459538
C           53.96247679877608       50.37542440365362       65.79292150591695
C           54.31109476323024       50.24340021214331       64.30236406128624
C           53.12927417645346       50.45366840746345       63.38766187995316
C           52.90971751665377       49.59486945417211       62.31718385962785
C           51.87012378770265       49.81175345439080       61.42817158032098
C           51.03032946513994       50.89891704195485       61.59606737320764
C           51.23407413993385       51.75746687553353       62.66284961613068
C           52.27511782828055       51.53956745793031       63.54679600611954
C           55.36745006444308       51.29274803113794       63.90475319024795
C           56.76131366773098       51.10121436425603       64.53362846567755
C           57.37306834044357       52.44016578151303       64.86050562027856
C           57.40677568862998       53.45709531301974       63.91391298828719
C           57.97362730673044       54.68282458975437       64.21089681127987
C           58.51545690102223       54.91552283489589       65.46309559830539
C           58.47771120213498       53.91383957965863       66.41747237537353
C           57.90820969911901       52.68851388114941       66.11782606190189
C           57.68078641025572       50.30466206401334       63.59391940438764
C           59.07042790313581       50.03072121316541       64.18963672830601
C           58.98933424192104       49.29594724381388       65.50290087471348
C           59.67752202386437       49.77000823854156       66.61297771147679
C           59.61807856863873       49.10398622307325       67.82434315927647
C           58.85853553488111       47.95334072476252       67.94777146948411
C           58.16864001428830       47.47044429488367       66.84915394957031
C           58.24112613580708       48.13202749058879       65.63647053853870
C           59.91910400091430       49.23599183249274       63.18443027564777
C           61.40679914403057       49.14596328614677       63.55941745428075
C           62.02923422465973       50.51270151664684       63.68717010080613
C           62.64612182140277       50.89813689762960       64.87106923381522
C           63.22321502420962       52.14970053611625       64.99686371161732
C           63.20052908160562       53.03752363788762       63.93501241011153
C           62.59965553318804       52.65849452414508       62.74673265135827
C           62.01912895716654       51.40907023704390       62.62500384406422
C           62.14416347220916       48.30840378268493       62.49986490214206
C           63.66526536384760       48.27600082183367       62.69124228708056
C           64.06443929039114       47.78410687163923       64.05978778532945
C           63.54297756819506       46.60990832269349       64.59009803504492
C           63.94885018686799       46.15304288066402       65.83104811546981
C           64.88899133998328       46.86021192625266       66.56096179997746
C           65.42289797714056       48.02543603010346       66.03783561381309
C           65.01417588255671       48.48023812319685       64.79670301280353
C           64.35249957332667       47.37775796975792       61.64816860575998
C           64.18247753298303       47.85125344125640       60.18920506180190
C           63.33773394213845       46.86604941016449       59.42193998606232
C           63.78730695042787       45.57612824767973       59.15912615614722
C           62.97412863912249       44.66351379953340       58.50946565099849
C           61.69715007616686       45.02589886106925       58.11379022560329
C           61.24839687969878       46.31291866259170       58.34903723411029
C           62.06585653125602       47.22202158584354       58.99450206790936
C           65.52683126416183       48.06802634145471       59.47960911303257
C           66.33297599438536       49.26864386702417       60.00371229027069
C           67.66430569450911       49.29572572317121       59.29472913124500
C           67.74111153776812       49.51557562147104       57.92408840617960
C           68.96367740646797       49.54188124747700       57.27915081252903
C           70.13269204486640       49.33890088773811       57.99264567184049
C           70.06883143723145       49.11313000733868       59.35641839402339
C           68.84324579370185       49.09454463781080       59.99988946474255
C           65.57126270534819       50.58908072994318       59.81575629926399
C           66.43446617308692       51.83465322616528       60.06240673675988
C           67.08104723686793       51.80839297648732       61.42355853927566
C           68.46316714205766       51.86870676798970       61.54891273116823
C           69.06554402322449       51.86974058105275       62.79475270100405
C           68.29133821783991       51.81549558359199       63.94084175870372
C           66.91280805480474       51.75525007807052       63.82945757279954
C           66.31497015454123       51.74772299078501       62.58234829152301
C           65.57184564461176       53.09490024971002       59.90724440769861
C           66.40473362914206       54.37937961985650       59.78856227146046
H           41.99295331071177       40.89540605744373       69.47937944748598
H           42.99231620442808       42.55299403565711       68.01645668692645
H           44.59092289487190       41.83599322542100       68.20279111961942
H           43.93452634888126       39.82881441011012       67.03814949430689
H           43.02232653006866       40.84191200307458       64.83100624449548
H           43.01965162766746       42.39133048050225       65.67347785186330
H           45.49515264059001       42.04722867330285       66.11702997644653
H           44.88107434545696       39.45582106741997       64.97720376533204
H           46.01926229846411       40.26436562855118       63.91281068584882
H           46.50241725295577       40.13916879456497       66.90545587169399
H           47.81190992768385       41.70518671514066       65.43725747422398
H           49.43314006463044       39.36712004989678       66.54639505942991
H           50.66954333959797       40.92411789666866       65.02910240688017
H           50.21925681882090       42.27084203831283       66.07763144616543
H           51.45899093320443       41.26866839093331       67.94841197341209
H           53.75441237377299       41.39521963864951       67.08719419198441
H           53.18384951068195       41.25041247593290       65.43019209146772
H           52.04197238126429       43.40880161693870       65.57287767526975
H           51.43076414223378       43.49925707718222       67.91388725124885
H           53.11706637285199       43.47954614787519       68.42029569269208
H           53.49536954089299       45.67528422018361       67.40645313437940
H           51.21007225942379       47.79444246198923       67.58042907226631
H           53.54702393885331       47.77148851440430       66.76835469745365
H           52.98906978318892       47.86474331477849       65.10483060697882
H           51.84461009308198       50.02793411397713       65.63989821906260
H           53.86150360603668       51.43627360978129       66.03724065295954
H           54.80068970491893       49.99050174308517       66.37581395927769
H           54.72197787843226       49.24418705211988       64.12079885342378
H           55.46465476570432       51.28739281161284       62.81578564565681
H           54.98040385320241       52.27421722554060       64.18861868162853
H           56.66538086443474       50.53877907732714       65.46632193158597
H           57.19517846204540       49.35908770661395       63.34455632420269
H           57.81259019977781       50.86240204899561       62.66394303322552
H           59.56021349201421       50.99586385958786       64.36197441509968
H           59.52099306960677       48.22152749978392       63.11108472170645
H           59.82298826109780       49.70692668662348       62.20253146191509
H           61.49163241062344       48.63771866254589       64.52613858747027
H           61.75142704084789       47.29076813037999       62.51628055138477
H           61.92400516982836       48.72441719346040       61.51584327122107
H           64.05039316533362       49.29484648858302       62.57238854184327
H           65.41474401432100       47.32753146509634       61.89165513251888
H           63.95555118829414       46.36654770460472       61.75474220495985
H           63.65452101014476       48.80754287779667       60.18358972545539
H           66.14281816446514       47.17120589251935       59.58053749987553
H           65.33241603971689       48.21861513061284       58.41398458824963
H           66.52015522206406       49.13110713365151       61.07394172670753
H           65.17844549010738       50.63756429455827       58.79811823005266
H           64.72310050053315       50.61406144576313       60.50213912257716
H           45.72385168451246       40.36372631403123       69.81746255224795
H           46.67883525575613       38.17884997691428       70.35507820636899
H           45.21969484549587       36.19838866780669       70.57452841026297
H           42.78028878412719       36.44154539458485       70.27219175739948
H           41.81467114772455       38.64578263627637       69.77983645772466
H           40.89550269414345       42.07648113786733       66.99579758077941
H           38.62370519114315       41.19548039471204       66.89250464356299
H           38.23663725034111       38.75763997373465       66.74942076046652
H           40.16752769695385       37.21606514851214       66.73388039604247
H           42.45562273392909       38.10423725555172       66.86333069102064
H           44.16064653763049       41.21404798384163       62.69091470961538
H           44.23887060541836       42.80037245331421       60.82640538901519
H           45.16332533486150       45.05922138184778       61.15449396884697
H           45.98933765833836       45.73313263218341       63.39925361578907
H           45.94269449752924       44.13438537431865       65.24487894855515
H           47.48690277246476       38.26841790508688       63.76255692709712
H           47.70880484351233       35.84200580796323       63.71451484879020
H           47.38936745967662       34.52015864663289       65.77942964869459
H           46.81409626502289       35.67673883597529       67.88816955534622
H           46.54783295260703       38.11389472320999       67.92104928264091
H           48.39739589798202       40.32359769776157       64.52651170552294
H           48.23692501352676       42.86369184300762       67.35802195458592
H           47.61582754401732       43.54115261555791       69.62591752862967
H           47.85013158263253       41.95611225692344       71.50383910983784
H           48.68577406465690       39.67406087579847       71.07995369603879
H           49.25807632755414       38.97489480319877       68.78717201783580
H           52.12119412772434       39.16522827085107       64.87026552297507
H           52.57857505448349       36.77954044960629       65.00487356274743
H           52.71472034642110       35.65185938089351       67.20344725956546
H           52.39730760665141       36.96843302424990       69.26758543709258
H           51.92400777542996       39.37567780529874       69.13262114022039
H           53.22980744789897       44.62499536008119       64.04000095718200
H           55.32699797695644       45.55921540302632       63.18193036657949
H           57.43162020542719       45.20918273911737       64.40419590963600
H           57.41433881413433       43.94799512671545       66.53728246188935
H           55.32071953926136       43.03133427905073       67.40629505992104
H           54.01642346081568       46.70352219814320       69.40458881189041
H           53.41641626136164       47.50759616215785       71.64592895008825
H           51.14103428335782       47.13978892247076       72.52669550824544
H           49.48234081526022       45.93066330987280       71.15575192628926
H           50.08656279123806       45.11051841569324       68.92971973761748
H           51.89648454655154       45.63928205050908       65.55811043048502
H           50.54263471694301       45.52036283119964       66.67966241595279
H           48.87418150174503       47.40815328038303       67.27551301906909
H           46.85438392331542       47.83362408139029       65.94778423107304
H           47.05125275903656       48.56101999874004       63.59998397737957
H           49.30286656945637       48.80533128733319       62.58874780905006
H           51.29603968389181       48.31318459273709       63.88134208406678
H           54.22494397395677       49.25302284693574       68.47683931370190
H           53.81074943320790       49.99547238639705       70.76867632658345
H           51.75892851345928       51.25393070146455       71.31979744464461
H           50.12754353756341       51.76140009751347       69.54630707348356
H           50.54446424307943       51.01059580254353       67.23587252168613
H           53.56107019725820       48.74072963719202       62.18062397215793
H           51.71312215398633       49.12446848045614       60.60849820756447
H           50.22077336868099       51.07848058027787       60.90293078044706
H           50.58208230597025       52.60542490301736       62.80943916047642
H           52.41752512688193       52.22485486646617       64.36976006639972
H           56.97249120469638       53.29476371951198       62.93915246624529
H           57.99029132477229       55.45930771069802       63.46061214870155
H           58.95734274282476       55.87363863440588       65.69486516729735
H           58.88965882902894       54.08837541585176       67.40092064256989
H           57.87700933799756       51.91299389467599       66.87014037246149
H           60.26269339672926       50.67442333800035       66.52344127514840
H           60.16163532473678       49.48721138688186       68.67600735996400
H           58.80415415455482       47.43670920405705       68.89500496861734
H           57.56608915075743       46.57712519247249       66.93567452063306
H           57.69841266852978       47.73675167529101       64.78992452306547
H           62.67855636981856       50.20539012421677       65.70020816500583
H           63.69279949016436       52.43431703808631       65.92747950956506
H           63.65168221277744       54.01460435967221       64.03285392032322
H           62.58404467076952       53.33823008433739       61.90569725704479
H           61.55182021769745       51.13136802592849       61.69228485677165
H           62.81114784592150       46.04041679970272       64.03754300603858
H           63.52687842440636       45.23928795925108       66.22521432721831
H           65.20563171588203       46.50426264468963       67.53050800375134
H           66.16102362180639       48.58171547997573       66.59770331791795
H           65.43803706015446       49.38837948888567       64.39171245778405
H           64.77905513784248       45.28088729327978       59.47295735030747
H           63.33662328435588       43.66313682606112       58.31807987616371
H           61.04445820469761       44.31539112834174       57.62731025262204
H           60.25574246299207       46.60204305592970       58.03798563390177
H           61.70727784543821       48.22367215049245       59.18119685066642
H           66.83924884322869       49.67372437767184       57.35254416134775
H           69.00215152757552       49.71969994334882       56.21428127734659
H           71.08887099080725       49.35824402719317       57.48986696238025
H           70.97549802477472       48.95396681243552       59.92302389902394
H           68.80382786337556       48.93153040998575       61.06782534402986
H           65.23715590135414       51.69869761953371       62.51994193921659
H           66.29693491920666       51.71984566133933       64.71722234327164
H           68.75926258406535       51.82133372547472       64.91445220771794
H           70.14249141328237       51.91584978056085       62.87115154267821
H           69.07383606754354       51.90683896234929       60.65782763818404
H           44.49773281481664       42.19593972058664       70.65155755626874
H           42.89439081736590       42.91435908801723       70.53373675396972
H           43.16287394014775       41.53789973895888       71.60419770103526
H           67.22164755522488       51.86026948987881       59.30165174984994
H           64.95712975026906       52.99346235513467       59.01233403905227
H           64.90198421009913       53.17326969926538       60.76452825884206
C           65.50928971572438       55.61879744951428       59.94918919075793
C           67.13076583718984       54.39302245683266       58.46646523071832
C           66.44630135896467       54.61425431688633       57.27682085234394
C           67.10894333821541       54.60472431571287       56.06264837515897
C           68.46992196730181       54.35371126218409       56.01591562756332
C           69.16349692879174       54.13325721809276       57.19280498869539
C           68.49890011056432       54.16140262518491       58.40662558371760
H           65.38298837717343       54.79927437088852       57.30021866398670
H           66.56452092204481       54.79641733843179       55.14876670113919
H           68.98560672389532       54.33260241728241       55.06677059843963
H           70.22648389012731       53.94162870694106       57.16701704692861
H           69.05034712142697       54.00213904727374       59.32251526840377
C           65.21299036654445       55.92849510653912       61.42091332568545
H           66.00213298496558       56.48480097908890       59.50066047003794
H           64.56473937648512       55.46489239035049       59.42236856710753
C           64.23481384297740       57.06100624694275       61.54129856347231
C           62.88185366688886       56.81841071725151       61.73881148496364
C           61.98625237577554       57.86641593240102       61.85585367031366
C           62.42954368035166       59.17428402783382       61.76674542025875
C           63.77302947025810       59.42686977934290       61.54568959217224
C           64.66704114767070       58.37768751734017       61.43544542198203
H           62.52598101139484       55.80101696774422       61.81782190637607
H           60.94005873591163       57.65866968633049       62.03363821059568
H           61.73740705048285       59.99624723621866       61.87924541976189
H           64.12482530702607       60.44598765474054       61.47153350261990
H           65.71746007057904       58.58001831575605       61.27913087875802
H           67.14917051063988       54.38380080321831       60.59285255643581
H           64.80779268315240       55.03967684536407       61.90707034561939
H           66.14687703988977       56.19025943852053       61.92419088750864
C           62.94149808170294       44.99141645666665       32.45345801800427
C           63.65430863255094       43.87336464601938       32.03612138482598
C           63.25455799884968       43.23671219175137       30.86757947429104
C           62.18148431822183       43.70592559854348       30.13078141246648
C           61.48597999049630       44.82428884328356       30.55408647623801
C           61.86648848675625       45.46244234994219       31.72187591051010
C           64.83635116455253       43.35725046146865       32.82307033857601
C           65.98261373130282       44.36971276807596       32.78444256045249
C           64.43685531992458       43.03950773362453       34.26930516861160
C           63.32387982550924       41.97731730175462       34.31638135753414
C           63.88860100731953       40.58891862722517       34.47200629584344
C           63.76296943535677       39.65735337663590       33.44983263871233
C           64.26281571878921       38.37468533541217       33.59428571940774
C           64.89212329937861       38.00188670505216       34.76937072141754
C           65.02799908140017       38.92287000255477       35.79422487962128
C           64.53531847923844       40.20537462855996       35.64138643903317
C           62.30826093794541       42.28189049718514       35.42237720804790
C           61.10924896036621       41.32391796890671       35.36312632610888
C           60.45159586312508       41.38421646848144       34.00853746599498
C           60.29107835146090       40.22935008337662       33.25339661275087
C           59.70169468280925       40.27652352873324       32.00151134578243
C           59.26433423654865       41.48286219739195       31.48283308264320
C           59.42516350464657       42.64088475126380       32.22425256151552
C           60.01246160546361       42.59093922179002       33.47364629910295
C           60.13151273419700       41.64784533863279       36.49950327959243
C           58.99165412189242       40.62169429967064       36.67096650367759
C           58.73763860840612       40.43630092428373       38.14748580714625
C           58.23288383091998       41.46589268270697       38.93450825552548
C           58.13078288431827       41.32007065214292       40.30663395132473
C           58.52758603928383       40.14419936693851       40.91997266077318
C           59.01357511831487       39.10577934393967       40.14437769484837
C           59.11555809594356       39.25382845559857       38.77230125206541
C           57.74974723574907       41.05977116714989       35.88856933388345
C           56.59010139539335       40.05272382096540       35.94045007402974
C           57.05076065583767       38.66989415444735       35.56184765491430
C           57.52456299468835       38.39175979396018       34.28517261714374
C           57.94975367809515       37.11894646068462       33.95132850971348
C           57.90814599590743       36.10158447138320       34.88933905259030
C           57.43972105389968       36.36799355830726       36.16428917658992
C           57.01505371918674       37.64243225353957       36.49600155957068
C           55.46717838454668       40.54009718971227       35.01359677613122
C           54.26187225599295       39.59274898503860       34.92917988696932
C           53.70059246275111       39.29650812468742       36.29548582765467
C           53.68890002866382       37.99181469184344       36.77343879322623
C           53.17113878864891       37.69705766983595       38.02174874723389
C           52.66669824182947       38.70797455177331       38.82044261071022
C           52.68763844636158       40.01431642670857       38.36330945994737
C           53.19320454111205       40.30378421652326       37.10794819123812
C           53.20720351707345       40.21782952683859       34.00434490545859
C           51.93771705003508       39.36981146988966       33.84423328563599
C           52.24783965592286       38.04595028112597       33.19516428951972
C           52.12749909711790       36.86759588343599       33.92106022664945
C           52.43382800169940       35.64613996577856       33.34811232405451
C           52.85990761370221       35.58321332756771       32.03283588519972
C           52.96351928546169       36.74876171998334       31.29334709354161
C           52.65746664424015       37.96819940146659       31.86972707732779
C           50.87829394191608       40.15312954025772       33.04995843948087
C           50.09861959793395       41.14033984803555       33.93729048009585
C           49.14054629868547       40.36435108000046       34.80244574577255
C           49.48876944605535       40.04985876661781       36.11084100523772
C           48.66226587678260       39.26609089728561       36.89580074309047