      -----------------------------------------------------------      
     |                   =====================                   |     
     |                           x T B                           |     
     |                   =====================                   |     
     |                         S. Grimme                         |     
     |          Mulliken Center for Theoretical Chemistry        |     
     |                    University of Bonn                     |     
      -----------------------------------------------------------      

   * xtb version 6.6.1 (8d0f1dd) compiled by 'stahn@M-Bot' on 2023-08-01

   xtb is free software: you can redistribute it and/or modify it under
   the terms of the GNU Lesser General Public License as published by
   the Free Software Foundation, either version 3 of the License, or
   (at your option) any later version.
   
   xtb is distributed in the hope that it will be useful,
   but WITHOUT ANY WARRANTY; without even the implied warranty of
   MERCHANTABILITY or FITNESS FOR A PARTICULAR PURPOSE.  See the
   GNU Lesser General Public License for more details.
   
   Cite this work as:
   * C. Bannwarth, E. Caldeweyher, S. Ehlert, A. Hansen, P. Pracht,
     J. Seibert, S. Spicher, S. Grimme, WIREs Comput. Mol. Sci., 2020, 11,
     e01493. DOI: 10.1002/wcms.1493
   
   for GFN2-xTB:
   * C. Bannwarth, S. Ehlert and S. Grimme., J. Chem. Theory Comput., 2019,
     15, 1652-1671. DOI: 10.1021/acs.jctc.8b01176
   for GFN1-xTB:
   * S. Grimme, C. Bannwarth, P. Shushkov, J. Chem. Theory Comput., 2017,
     13, 1989-2009. DOI: 10.1021/acs.jctc.7b00118
   for GFN0-xTB:
   * P. Pracht, E. Caldeweyher, S. Ehlert, S. Grimme, ChemRxiv, 2019, preprint.
     DOI: 10.26434/chemrxiv.8326202.v1
   for GFN-FF:
   * S. Spicher and S. Grimme, Angew. Chem. Int. Ed., 2020, 59, 15665-15673.
     DOI: 10.1002/anie.202004239
   
   for ALPB and GBSA implicit solvation:
   * S. Ehlert, M. Stahn, S. Spicher, S. Grimme, J. Chem. Theory Comput.,
     2021, 17, 4250-4261. DOI: 10.1021/acs.jctc.1c00471
   
   for DFT-D4:
   * E. Caldeweyher, C. Bannwarth and S. Grimme, J. Chem. Phys., 2017,
     147, 034112. DOI: 10.1063/1.4993215
   * E. Caldeweyher, S. Ehlert, A. Hansen, H. Neugebauer, S. Spicher,
     C. Bannwarth and S. Grimme, J. Chem. Phys., 2019, 150, 154122.
     DOI: 10.1063/1.5090222
   * E. Caldeweyher, J.-M. Mewes, S. Ehlert and S. Grimme, Phys. Chem. Chem. Phys.
     2020, 22, 8499-8512. DOI: 10.1039/D0CP00502A
   
   for sTDA-xTB:
   * S. Grimme and C. Bannwarth, J. Chem. Phys., 2016, 145, 054103.
     DOI: 10.1063/1.4959605
   
   in the mass-spec context:
   * V. Asgeirsson, C. Bauer and S. Grimme, Chem. Sci., 2017, 8, 4879.
     DOI: 10.1039/c7sc00601b
   * J. Koopman and S. Grimme, ACS Omega 2019, 4, 12, 15120-15133.
     DOI: 10.1021/acsomega.9b02011
   
   for metadynamics refer to:
   * S. Grimme, J. Chem. Theory Comput., 2019, 155, 2847-2862
     DOI: 10.1021/acs.jctc.9b00143
   
   for SPH calculations refer to:
   * S. Spicher and S. Grimme, J. Chem. Theory Comput., 2021, 17, 1701-1714
     DOI: 10.1021/acs.jctc.0c01306
   
   with help from (in alphabetical order)
   P. Atkinson, C. Bannwarth, F. Bohle, G. Brandenburg, E. Caldeweyher
   M. Checinski, S. Dohm, S. Ehlert, S. Ehrlich, I. Gerasimov, C. Hölzer
   A. Katbashev, J. Koopman, C. Lavigne, S. Lehtola, F. März, M. Müller,
   F. Musil, H. Neugebauer, J. Pisarek, C. Plett, P. Pracht, F. Pultar,
   J. Seibert, P. Shushkov, S. Spicher, M. Stahn, M. Steiner, T. Strunk,
   J. Stückrath, T. Rose, and J. Unsleber
   
 * started run on 2024/06/21 at 10:07:09.653     

           -------------------------------------------------
          |                Calculation Setup                |
           -------------------------------------------------

          program call               : /home/abt-grimme/AK-bin/xtb input.xyz --input input.inp --opt --gbsa water
          hostname                   : boar005.thch.uni-bonn.de
          coordinate file            : input.xyz
          omp threads                :                     8

   ID    Z sym.   atoms
    1    6 C      1-90, 273-362, 545-634, 817-906, 1089-1178, 1361-1450,
                  1633-1722, 1905-1994, 2177-2266, 2449-2538, 2721-2810,
                  2993-3082, 3265-3354
    2    1 H      91-272, 363-544, 635-816, 907-1088, 1179-1360, 1451-1632,
                  1723-1904, 1995-2176, 2267-2448, 2539-2720, 2811-2992,
                  3083-3264, 3355-3536

molecular fragmentation (1/2 indicates fragments):
111111111111111111111111111111111111111111111111111111111111111111111111
111111111111111111111111111111111111111111111111111111111111111111111111
111111111111111111111111111111111111111111111111111111111111111111111111
111111111111111111111111111111111111111111111111111111112222222222222222
222222222222222222222222222222222222222222222222222222222222222222222222
222222222222222222222222222222222222222222222222222222222222222222222222
222222222222222222222222222222222222222222222222222222222222222222222222
222222222222222222222222222222222222222222222222222222222222222222222222
222222222222222222222222222222222222222222222222222222222222222222222222
222222222222222222222222222222222222222222222222222222222222222222222222
222222222222222222222222222222222222222222222222222222222222222222222222
222222222222222222222222222222222222222222222222222222222222222222222222
222222222222222222222222222222222222222222222222222222222222222222222222
222222222222222222222222222222222222222222222222222222222222222222222222
222222222222222222222222222222222222222222222222222222222222222222222222
222222222222222222222222222222222222222222222222222222222222222222222222
222222222222222222222222222222222222222222222222222222222222222222222222
222222222222222222222222222222222222222222222222222222222222222222222222
222222222222222222222222222222222222222222222222222222222222222222222222
222222222222222222222222222222222222222222222222222222222222222222222222
222222222222222222222222222222222222222222222222222222222222222222222222
222222222222222222222222222222222222222222222222222222222222222222222222
222222222222222222222222222222222222222222222222222222222222222222222222
222222222222222222222222222222222222222222222222222222222222222222222222
222222222222222222222222222222222222222222222222222222222222222222222222
222222222222222222222222222222222222222222222222222222222222222222222222
222222222222222222222222222222222222222222222222222222222222222222222222
222222222222222222222222222222222222222222222222222222222222222222222222
222222222222222222222222222222222222222222222222222222222222222222222222
222222222222222222222222222222222222222222222222222222222222222222222222
222222222222222222222222222222222222222222222222222222222222222222222222
222222222222222222222222222222222222222222222222222222222222222222222222
222222222222222222222222222222222222222222222222222222222222222222222222
222222222222222222222222222222222222222222222222222222222222222222222222
222222222222222222222222222222222222222222222222222222222222222222222222
222222222222222222222222222222222222222222222222222222222222222222222222
222222222222222222222222222222222222222222222222222222222222222222222222
222222222222222222222222222222222222222222222222222222222222222222222222
222222222222222222222222222222222222222222222222222222222222222222222222
222222222222222222222222222222222222222222222222222222222222222222222222
222222222222222222222222222222222222222222222222222222222222222222222222
222222222222222222222222222222222222222222222222222222222222222222222222
222222222222222222222222222222222222222222222222222222222222222222222222
222222222222222222222222222222222222222222222222222222222222222222222222
222222222222222222222222222222222222222222222222222222222222222222222222
222222222222222222222222222222222222222222222222222222222222222222222222
222222222222222222222222222222222222222222222222222222222222222222222222
222222222222222222222222222222222222222222222222222222222222222222222222
222222222222222222222222222222222222222222222222222222222222222222222222
22222222
# atoms in fragment 1/2:   272  3264
 fragment masses (1/2) :     1264.41    15172.94
CMA distance (Bohr)    :  25.989
constraining FC (au)   :  0.0500

           -------------------------------------------------
          |                 G F N 2 - x T B                 |
           -------------------------------------------------

        Reference                      10.1021/acs.jctc.8b01176
      * Hamiltonian:
        H0-scaling (s, p, d)           1.850000    2.230000    2.230000
        zeta-weighting                 0.500000
      * Dispersion:
        s8                             2.700000
        a1                             0.520000
        a2                             5.000000
        s9                             5.000000
      * Repulsion:
        kExp                           1.500000    1.000000
        rExp                           1.000000
      * Coulomb:
        alpha                          2.000000
        third order                    shell-resolved
        anisotropic                    true
        a3                             3.000000
        a5                             4.000000
        cn-shift                       1.200000
        cn-exp                         4.000000
        max-rad                        5.000000

      * Solvation model:               GBSA
        Solvent                        water
        Parameter file                 internal GFN2-xTB/GBSA
        Dielectric constant                8.0200E+01
        Reference state                gsolv [1 M gas/solution]
        Free energy shift                  1.8574E-03 Eh       1.1656E+00 kcal/mol
        Temperature                        2.9815E+02 K
        Density                            1.0000E+00 kg/L
        Solvent mass                       1.8000E+01 g/mol
        Interaction kernel             Still
        Born radius scaling (c1)           1.5524E+00
        Born radii integrator          GBOBC
        Born offset                        2.4628E-02 a0       4.6540E-02 AA
        H-bond correction              true
        Ion screening                  false
        Surface tension                    1.0000E-05 Eh       1.5569E+01 dyn/cm
        Grid points                               230 per atom
q/qsh data taken from xtbrestart
CAMM data taken from xtbrestart

          ...................................................
          :                      SETUP                      :
          :.................................................:
          :  # basis functions                7046          :
          :  # atomic orbitals                7046          :
          :  # shells                         4706          :
          :  # electrons                      7046          :
          :  max. iterations                   250          :
          :  Hamiltonian                  GFN2-xTB          :
          :  restarted?                       true          :
          :  GBSA solvation                   true          :
          :  PC potential                    false          :
          :  electronic temp.          300.0000000     K    :
          :  accuracy                    1.0000000          :
          :  -> integral cutoff          0.2500000E+02      :
          :  -> integral neglect         0.1000000E-07      :
          :  -> SCF convergence          0.1000000E-05 Eh   :
          :  -> wf. convergence          0.1000000E-03 e    :
          :  Broyden damping             0.4000000          :
          ...................................................

 iter      E             dE          RMSdq      gap      omega  full diag
   1  -3764.2233610 -0.376422E+04  0.355E-05   10.51       0.0  T
   2  -3764.2233610 -0.723503E-09  0.264E-05   10.51      63.6  T
   3  -3764.2233610 -0.901764E-09  0.128E-05   10.51     131.8  T

   *** convergence criteria satisfied after 3 iterations ***

         #    Occupation            Energy/Eh            Energy/eV
      -------------------------------------------------------------
         1        2.0000           -0.6183789             -16.8269
       ...           ...                  ...                  ...
      3517        2.0000           -0.3773153             -10.2673
      3518        2.0000           -0.3768792             -10.2554
      3519        2.0000           -0.3761886             -10.2366
      3520        2.0000           -0.3756352             -10.2216
      3521        2.0000           -0.3750990             -10.2070
      3522        2.0000           -0.3742769             -10.1846
      3523        2.0000           -0.3725737             -10.1382 (HOMO)
      3524                          0.0137018               0.3728 (LUMO)
      3525                          0.0149403               0.4065
      3526                          0.0151260               0.4116
      3527                          0.0165814               0.4512
      3528                          0.0168381               0.4582
       ...                                ...                  ...
      7046                          0.3693835              10.0514
      -------------------------------------------------------------
                  HL-Gap            0.3862755 Eh           10.5111 eV
             Fermi-level           -0.1794360 Eh           -4.8827 eV

 SCC (total)                   0 d,  0 h,  8 min, 41.135 sec
 SCC setup                      ...        0 min,  2.004 sec (  0.385%)
 Dispersion                     ...        0 min,  4.210 sec (  0.808%)
 classical contributions        ...        0 min,  0.153 sec (  0.029%)
 integral evaluation            ...        0 min,  7.159 sec (  1.374%)
 iterations                     ...        3 min, 54.223 sec ( 44.945%)
 molecular gradient             ...        4 min, 22.501 sec ( 50.371%)
 printout                       ...        0 min, 10.884 sec (  2.089%)

         :::::::::::::::::::::::::::::::::::::::::::::::::::::
         ::                     SUMMARY                     ::
         :::::::::::::::::::::::::::::::::::::::::::::::::::::
         :: total energy           -3715.361441775305 Eh    ::
         :: total w/o Gsasa/hb     -3715.249866954462 Eh    ::
         :: gradient norm              0.664796314768 Eh/a0 ::
         :: HOMO-LUMO gap             10.511090984998 eV    ::
         ::.................................................::
         :: SCC energy             -3764.223360997116 Eh    ::
         :: -> isotropic ES            0.441674126585 Eh    ::
         :: -> anisotropic ES          1.496814570524 Eh    ::
         :: -> anisotropic XC          2.300983612647 Eh    ::
         :: -> dispersion             -4.688605463340 Eh    ::
         :: -> Gsolv                  -0.050391849049 Eh    ::
         ::    -> Gelec                0.061182971795 Eh    ::
         ::    -> Gsasa               -0.107016601542 Eh    ::
         ::    -> Ghb                 -0.006415662429 Eh    ::
         ::    -> Gshift               0.001857443127 Eh    ::
         :: repulsion energy          48.141481070596 Eh    ::
         :: add. restraining           0.000000000000 Eh    ::
         :: total charge              -0.000000000008 e     ::
         :::::::::::::::::::::::::::::::::::::::::::::::::::::

      ----------------------------------------------------------- 
     |              Fast Inertial Relaxation Engine              |
      ----------------------------------------------------------- 

          ...................................................
          :                      SETUP                      :
          :.................................................:
          :   energy convergence        0.5000000E-05 Eh    :
          :   grad. convergence         0.1000000E-02 Eh/a0 :
          :   optimization log               true           :
          :   writing optlog all                1     steps :
          :   Hessian reset                    20     steps :
          :   time step scaling                 5     steps :
          :   maximium step len.        1.0000000     a0    :
          :   initial time step         0.2500000     fs    :
          :   maximum time step         1.2500000     fs    :
          :   power reset thr           0.0000000     au    :
          :   alpha parameter           0.1000000           :
          :   BFGS update                   false           :
          :   preconditioning               false           :
          ...................................................

........................................................................
.............................. CYCLE    1 ..............................
........................................................................

 iter      E             dE          RMSdq      gap      omega  full diag
   1  -3764.4851328 -0.376449E+04  0.760E-03   10.52       0.0  T
   2  -3764.4851762 -0.434136E-04  0.413E-03   10.52       1.0  T
   3  -3764.4851769 -0.676880E-06  0.179E-03   10.52       1.0  T
   4  -3764.4851774 -0.519041E-06  0.440E-04   10.52       3.8  T
   5  -3764.4851777 -0.268949E-06  0.175E-04   10.52       9.6  T
     SCC iter.                  ...        6 min,  7.650 sec
     gradient                   ...        4 min, 23.076 sec
 * total energy  : -3715.4116553 Eh     change    :  -0.5021351E-01 Eh
   gradient norm :     0.6317908 Eh/a0  converged?    E=F G=F D=F
   time step     :     0.2500000 fs     power     :   0.2598690E-05
   step length   :     0.0779127 a0     speed     :   0.7538473E-02

........................................................................
.............................. CYCLE    2 ..............................
........................................................................

 iter      E             dE          RMSdq      gap      omega  full diag
   1  -3764.8713150 -0.376487E+04  0.112E-02   10.53       0.0  T
   2  -3764.8714085 -0.934359E-04  0.605E-03   10.53       1.0  T
   3  -3764.8714100 -0.150961E-05  0.262E-03   10.53       1.0  T
   4  -3764.8714111 -0.112227E-05  0.653E-04   10.53       2.6  T
   5  -3764.8714117 -0.587986E-06  0.270E-04   10.53       6.2  T
   6  -3764.8714117 -0.444325E-07  0.122E-04   10.53      13.8  T
     SCC iter.                  ...        7 min, 16.168 sec
     gradient                   ...        4 min, 20.391 sec
 * total energy  : -3715.4813509 Eh     change    :  -0.6969559E-01 Eh
   gradient norm :     0.5858065 Eh/a0  converged?    E=F G=F D=F
   time step     :     0.2500000 fs     power     :   0.3555319E-05
   step length   :     0.1147878 a0     speed     :   0.1110634E-01

........................................................................
.............................. CYCLE    3 ..............................
........................................................................

 iter      E             dE          RMSdq      gap      omega  full diag
   1  -3765.3720665 -0.376537E+04  0.144E-02   10.54       0.0  T
   2  -3765.3722195 -0.153017E-03  0.779E-03   10.54       1.0  T
   3  -3765.3722220 -0.250590E-05  0.334E-03   10.54       1.0  T
   4  -3765.3722238 -0.182174E-05  0.839E-04   10.54       2.0  T
   5  -3765.3722248 -0.969334E-06  0.350E-04   10.54       4.8  T
   6  -3765.3722249 -0.724604E-07  0.155E-04   10.54      10.9  T
     SCC iter.                  ...        7 min, 24.287 sec
     gradient                   ...        4 min, 22.196 sec
 * total energy  : -3715.5639856 Eh     change    :  -0.8263475E-01 Eh
   gradient norm :     0.5278655 Eh/a0  converged?    E=F G=F D=F
   time step     :     0.2500000 fs     power     :   0.4145420E-05
   step length   :     0.1489924 a0     speed     :   0.1441582E-01

........................................................................
.............................. CYCLE    4 ..............................
........................................................................

 iter      E             dE          RMSdq      gap      omega  full diag
   1  -3765.9747387 -0.376597E+04  0.172E-02   10.56       0.0  T
   2  -3765.9749519 -0.213157E-03  0.930E-03   10.56       1.0  T
   3  -3765.9749555 -0.360422E-05  0.393E-03   10.56       1.0  T
   4  -3765.9749580 -0.249184E-05  0.990E-04   10.55       1.7  T
   5  -3765.9749593 -0.133762E-05  0.424E-04   10.55       4.0  T
   6  -3765.9749594 -0.103385E-06  0.182E-04   10.55       9.2  T
   7  -3765.9749595 -0.479090E-07  0.120E-04   10.55      14.0  T
     SCC iter.                  ...        8 min, 38.481 sec
     gradient                   ...        4 min, 20.664 sec
 * total energy  : -3715.6520553 Eh     change    :  -0.8806970E-01 Eh
   gradient norm :     0.4615948 Eh/a0  converged?    E=F G=F D=F
   time step     :     0.2500000 fs     power     :   0.4329501E-05
   step length   :     0.1796868 a0     speed     :   0.1738567E-01

........................................................................
.............................. CYCLE    5 ..............................
........................................................................

 iter      E             dE          RMSdq      gap      omega  full diag
   1  -3766.6639437 -0.376666E+04  0.195E-02   10.57       0.0  T
   2  -3766.6642073 -0.263603E-03  0.105E-02   10.57       1.0  T
   3  -3766.6642119 -0.463305E-05  0.436E-03   10.57       1.0  T
   4  -3766.6642148 -0.292839E-05  0.109E-03   10.57       1.5  T
   5  -3766.6642164 -0.158445E-05  0.475E-04   10.57       3.5  T
   6  -3766.6642165 -0.107991E-06  0.188E-04   10.56       9.0  T
   7  -3766.6642166 -0.477535E-07  0.123E-04   10.56      13.7  T
     SCC iter.                  ...        8 min, 35.269 sec
     gradient                   ...        4 min, 20.350 sec
 * total energy  : -3715.7380430 Eh     change    :  -0.8598769E-01 Eh
   gradient norm :     0.3923891 Eh/a0  converged?    E=F G=F D=F
   time step     :     0.2500000 fs     power     :   0.4122122E-05
   step length   :     0.2061516 a0     speed     :   0.1994628E-01

........................................................................
.............................. CYCLE    6 ..............................
........................................................................

 iter      E             dE          RMSdq      gap      omega  full diag
   1  -3767.5046913 -0.376750E+04  0.235E-02   10.58       0.0  T
   2  -3767.5050532 -0.361898E-03  0.126E-02   10.58       1.0  T
   3  -3767.5050603 -0.704152E-05  0.510E-03   10.58       1.0  T
   4  -3767.5050641 -0.381406E-05  0.126E-03   10.58       1.3  T
   5  -3767.5050661 -0.202455E-05  0.582E-04   10.58       2.9  T
   6  -3767.5050663 -0.148169E-06  0.213E-04   10.58       7.9  T
   7  -3767.5050663 -0.598143E-07  0.142E-04   10.58      11.9  T
     SCC iter.                  ...        8 min, 33.520 sec
     gradient                   ...        4 min, 19.825 sec
 * total energy  : -3715.8229218 Eh     change    :  -0.8487875E-01 Eh
   gradient norm :     0.3212878 Eh/a0  converged?    E=F G=F D=F
   time step     :     0.2750000 fs     power     :   0.3516631E-05
   step length   :     0.2529673 a0     speed     :   0.2225086E-01

........................................................................
.............................. CYCLE    7 ..............................
........................................................................

 iter      E             dE          RMSdq      gap      omega  full diag
   1  -3768.4932572 -0.376849E+04  0.274E-02   10.59       0.0  T
   2  -3768.4937014 -0.444217E-03  0.147E-02   10.59       1.0  T
   3  -3768.4937118 -0.103999E-04  0.565E-03   10.59       1.0  T
   4  -3768.4937161 -0.431294E-05  0.135E-03   10.59       1.2  T
   5  -3768.4937182 -0.208109E-05  0.689E-04   10.59       2.4  T
   6  -3768.4937184 -0.189335E-06  0.226E-04   10.59       7.4  T
   7  -3768.4937184 -0.654591E-07  0.155E-04   10.59      10.9  T
     SCC iter.                  ...        8 min, 42.029 sec
     gradient                   ...        4 min, 21.334 sec
 * total energy  : -3715.8972839 Eh     change    :  -0.7436212E-01 Eh
   gradient norm :     0.2644408 Eh/a0  converged?    E=F G=F D=F
   time step     :     0.3025000 fs     power     :   0.2567803E-05
   step length   :     0.3011254 a0     speed     :   0.2407892E-01

........................................................................
.............................. CYCLE    8 ..............................
........................................................................

 iter      E             dE          RMSdq      gap      omega  full diag
   1  -3769.5952474 -0.376960E+04  0.305E-02   10.60       0.0  T
   2  -3769.5957097 -0.462282E-03  0.163E-02   10.60       1.0  T
   3  -3769.5957245 -0.147704E-04  0.580E-03   10.60       1.0  T
   4  -3769.5957285 -0.399822E-05  0.133E-03   10.60       1.3  T
   5  -3769.5957298 -0.132338E-05  0.762E-04   10.60       2.2  T
   6  -3769.5957300 -0.221053E-06  0.214E-04   10.60       7.9  T
   7  -3769.5957301 -0.564983E-07  0.154E-04   10.60      10.9  T
     SCC iter.                  ...        8 min, 44.695 sec
     gradient                   ...        4 min, 20.510 sec
 * total energy  : -3715.9529510 Eh     change    :  -0.5566717E-01 Eh
   gradient norm :     0.2419302 Eh/a0  converged?    E=F G=F D=F
   time step     :     0.3327500 fs     power     :   0.1480086E-05
   step length   :     0.3452171 a0     speed     :   0.2509512E-01

........................................................................
.............................. CYCLE    9 ..............................
........................................................................

 iter      E             dE          RMSdq      gap      omega  full diag
   1  -3770.7282717 -0.377073E+04  0.324E-02   10.61       0.0  T
   2  -3770.7286526 -0.380974E-03  0.175E-02   10.61       1.0  T
   3  -3770.7286712 -0.185933E-04  0.540E-03   10.61       1.0  T
   4  -3770.7286746 -0.337314E-05  0.130E-03   10.61       1.3  T
   5  -3770.7286751 -0.519751E-06  0.752E-04   10.61       2.2  T
   6  -3770.7286753 -0.207099E-06  0.168E-04   10.61      10.0  T
     SCC iter.                  ...        7 min, 26.467 sec
     gradient                   ...        4 min, 20.953 sec
 * total energy  : -3715.9873201 Eh     change    :  -0.3436904E-01 Eh
   gradient norm :     0.2502888 Eh/a0  converged?    E=F G=F D=F
   time step     :     0.3660250 fs     power     :   0.5571856E-06
   step length   :     0.3776064 a0     speed     :   0.2495420E-01

........................................................................
.............................. CYCLE   10 ..............................
........................................................................

 iter      E             dE          RMSdq      gap      omega  full diag
   1  -3771.7792446 -0.377178E+04  0.333E-02   10.62       0.0  T
   2  -3771.7794905 -0.245871E-03  0.185E-02   10.62       1.0  T
   3  -3771.7795064 -0.158702E-04  0.474E-03   10.62       1.0  T
   4  -3771.7795146 -0.820976E-05  0.145E-03   10.62       1.2  T
   5  -3771.7795157 -0.107874E-05  0.815E-04   10.62       2.1  T
   6  -3771.7795158 -0.132999E-06  0.138E-04   10.62      12.1  T
   7  -3771.7795158 -0.217442E-07  0.104E-04   10.62      16.2  T
     SCC iter.                  ...        8 min, 41.140 sec
     gradient                   ...        4 min, 19.918 sec
 * total energy  : -3716.0041301 Eh     change    :  -0.1681002E-01 Eh
   gradient norm :     0.2604317 Eh/a0  converged?    E=F G=F D=F
   time step     :     0.4026275 fs     power     :  -0.4365397E-07
   step length   :     0.3956873 a0     speed     :   0.2377189E-01

........................................................................
.............................. CYCLE   11 ..............................
........................................................................
 * reset velocities

 iter      E             dE          RMSdq      gap      omega  full diag
   1  -3771.7607148 -0.377176E+04  0.105E-03   10.62       0.0  T
   2  -3771.7607157 -0.839312E-06  0.643E-04   10.62       2.6  T
   3  -3771.7607157 -0.111072E-07  0.270E-04   10.62       6.2  T
     SCC iter.                  ...        3 min, 42.378 sec
     gradient                   ...        4 min, 20.272 sec
 * total energy  : -3716.0066761 Eh     change    :  -0.2546038E-02 Eh
   gradient norm :     0.2542162 Eh/a0  converged?    E=F G=F D=F
   time step     :     0.2013138 fs     power     :   0.1658127E-06
   step length   :     0.0098958 a0     speed     :   0.1189028E-02

........................................................................
.............................. CYCLE   12 ..............................
........................................................................

 iter      E             dE          RMSdq      gap      omega  full diag
   1  -3771.7235899 -0.377172E+04  0.210E-03   10.62       0.0  T
   2  -3771.7235931 -0.315064E-05  0.129E-03   10.62       1.3  T
   3  -3771.7235931 -0.273794E-07  0.521E-04   10.62       3.2  T
   4  -3771.7235932 -0.816658E-07  0.136E-04   10.62      12.4  T
     SCC iter.                  ...        4 min, 55.758 sec
     gradient                   ...        4 min, 19.845 sec
 * total energy  : -3716.0115283 Eh     change    :  -0.4852189E-02 Eh
   gradient norm :     0.2420976 Eh/a0  converged?    E=F G=F D=F
   time step     :     0.2013138 fs     power     :   0.3119761E-06
   step length   :     0.0195552 a0     speed     :   0.2349655E-02

........................................................................
.............................. CYCLE   13 ..............................
........................................................................

 iter      E             dE          RMSdq      gap      omega  full diag
   1  -3771.6690864 -0.377167E+04  0.303E-03   10.62       0.0  T
   2  -3771.6690935 -0.709090E-05  0.186E-03   10.62       1.0  T
   3  -3771.6690936 -0.100912E-06  0.785E-04   10.62       2.1  T
   4  -3771.6690937 -0.184873E-06  0.207E-04   10.62       8.1  T
     SCC iter.                  ...        4 min, 58.074 sec
     gradient                   ...        4 min, 20.636 sec
 * total energy  : -3716.0182340 Eh     change    :  -0.6705680E-02 Eh
   gradient norm :     0.2245476 Eh/a0  converged?    E=F G=F D=F
   time step     :     0.2013138 fs     power     :   0.4251395E-06
   step length   :     0.0287526 a0     speed     :   0.3454763E-02

........................................................................
.............................. CYCLE   14 ..............................
........................................................................

 iter      E             dE          RMSdq      gap      omega  full diag
   1  -3771.5986345 -0.377160E+04  0.391E-03   10.62       0.0  T
   2  -3771.5986464 -0.118585E-04  0.240E-03   10.62       1.0  T
   3  -3771.5986465 -0.174577E-06  0.102E-03   10.62       1.7  T
   4  -3771.5986468 -0.308261E-06  0.269E-04   10.62       6.2  T
   5  -3771.5986469 -0.909854E-07  0.686E-05   10.62      24.5  T
     SCC iter.                  ...        6 min, 17.051 sec
     gradient                   ...        4 min, 22.161 sec
 * total energy  : -3716.0261778 Eh     change    :  -0.7943812E-02 Eh
   gradient norm :     0.2023283 Eh/a0  converged?    E=F G=F D=F
   time step     :     0.2013138 fs     power     :   0.4956312E-06
   step length   :     0.0372769 a0     speed     :   0.4479006E-02

........................................................................
.............................. CYCLE   15 ..............................
........................................................................

 iter      E             dE          RMSdq      gap      omega  full diag
   1  -3771.5141689 -0.377151E+04  0.468E-03   10.62       0.0  T
   2  -3771.5141860 -0.171165E-04  0.288E-03   10.62       1.0  T
   3  -3771.5141863 -0.256510E-06  0.122E-03   10.62       1.4  T
   4  -3771.5141867 -0.429888E-06  0.322E-04   10.62       5.2  T
   5  -3771.5141868 -0.129865E-06  0.814E-05   10.62      20.6  T
     SCC iter.                  ...        6 min,  6.243 sec
     gradient                   ...        4 min, 19.584 sec
 * total energy  : -3716.0346500 Eh     change    :  -0.8472226E-02 Eh
   gradient norm :     0.1764818 Eh/a0  converged?    E=F G=F D=F
   time step     :     0.2013138 fs     power     :   0.5184608E-06
   step length   :     0.0449391 a0     speed     :   0.5399651E-02

........................................................................
.............................. CYCLE   16 ..............................
........................................................................

 iter      E             dE          RMSdq      gap      omega  full diag
   1  -3771.4181862 -0.377142E+04  0.531E-03   10.62       0.0  T
   2  -3771.4182084 -0.222002E-04  0.328E-03   10.62       1.0  T
   3  -3771.4182087 -0.337415E-06  0.138E-03   10.62       1.2  T
   4  -3771.4182093 -0.546819E-06  0.367E-04   10.62       4.6  T
   5  -3771.4182094 -0.167383E-06  0.929E-05   10.62      18.1  T
     SCC iter.                  ...        6 min,  9.179 sec
     gradient                   ...        4 min, 20.297 sec
 * total energy  : -3716.0429282 Eh     change    :  -0.8278183E-02 Eh
   gradient norm :     0.1485743 Eh/a0  converged?    E=F G=F D=F
   time step     :     0.2013138 fs     power     :   0.4942602E-06
   step length   :     0.0515727 a0     speed     :   0.6196716E-02

........................................................................
.............................. CYCLE   17 ..............................
........................................................................

 iter      E             dE          RMSdq      gap      omega  full diag
   1  -3771.3023923 -0.377130E+04  0.642E-03   10.63       0.0  T
   2  -3771.3024249 -0.326009E-04  0.397E-03   10.63       1.0  T
   3  -3771.3024254 -0.498631E-06  0.167E-03   10.63       1.0  T
   4  -3771.3024262 -0.783355E-06  0.444E-04   10.63       3.8  T
   5  -3771.3024264 -0.243447E-06  0.111E-04   10.63      15.2  T
     SCC iter.                  ...        6 min, 10.475 sec
     gradient                   ...        4 min, 19.046 sec
 * total energy  : -3716.0510795 Eh     change    :  -0.8151284E-02 Eh
   gradient norm :     0.1181642 Eh/a0  converged?    E=F G=F D=F
   time step     :     0.2214451 fs     power     :   0.4205487E-06
   step length   :     0.0633458 a0     speed     :   0.6919375E-02

........................................................................
.............................. CYCLE   18 ..............................
........................................................................

 iter      E             dE          RMSdq      gap      omega  full diag
   1  -3771.1689750 -0.377117E+04  0.746E-03   10.63       0.0  T
   2  -3771.1690191 -0.440776E-04  0.463E-03   10.63       1.0  T
   3  -3771.1690197 -0.674399E-06  0.194E-03   10.63       1.0  T
   4  -3771.1690208 -0.103644E-05  0.517E-04   10.63       3.3  T
   5  -3771.1690211 -0.326830E-06  0.128E-04   10.63      13.1  T
   6  -3771.1690211 -0.132782E-07  0.880E-05   10.63      19.1  T
     SCC iter.                  ...        7 min, 23.381 sec
     gradient                   ...        4 min, 21.578 sec
 * total energy  : -3716.0581163 Eh     change    :  -0.7036763E-02 Eh
   gradient norm :     0.0913514 Eh/a0  converged?    E=F G=F D=F
   time step     :     0.2435896 fs     power     :   0.3007367E-06
   step length   :     0.0755590 a0     speed     :   0.7503129E-02

........................................................................
.............................. CYCLE   19 ..............................
........................................................................

 iter      E             dE          RMSdq      gap      omega  full diag
   1  -3771.0263510 -0.377103E+04  0.818E-03   10.63       0.0  T
   2  -3771.0264034 -0.523509E-04  0.511E-03   10.63       1.0  T
   3  -3771.0264041 -0.758734E-06  0.212E-03   10.63       1.0  T
   4  -3771.0264054 -0.122275E-05  0.562E-04   10.63       3.0  T
   5  -3771.0264057 -0.383422E-06  0.131E-04   10.63      12.8  T
   6  -3771.0264057 -0.117757E-07  0.856E-05   10.63      19.7  T
     SCC iter.                  ...        7 min, 23.493 sec
     gradient                   ...        4 min, 20.573 sec
 * total energy  : -3716.0631189 Eh     change    :  -0.5002669E-02 Eh
   gradient norm :     0.0813902 Eh/a0  converged?    E=F G=F D=F
   time step     :     0.2679486 fs     power     :   0.1592374E-06
   step length   :     0.0868275 a0     speed     :   0.7838283E-02

........................................................................
.............................. CYCLE   20 ..............................
........................................................................

 iter      E             dE          RMSdq      gap      omega  full diag
   1  -3770.8928063 -0.377089E+04  0.821E-03   10.64       0.0  T
   2  -3770.8928562 -0.499153E-04  0.517E-03   10.64       1.0  T
   3  -3770.8928569 -0.614581E-06  0.206E-03   10.64       1.0  T
   4  -3770.8928581 -0.125942E-05  0.553E-04   10.64       3.0  T
   5  -3770.8928585 -0.367461E-06  0.131E-04   10.64      12.9  T
   6  -3770.8928585 -0.985347E-08  0.796E-05   10.64      21.1  T
     SCC iter.                  ...        7 min, 19.839 sec
     gradient                   ...        4 min, 21.261 sec
 * total energy  : -3716.0658915 Eh     change    :  -0.2772591E-02 Eh
   gradient norm :     0.0947178 Eh/a0  converged?    E=F G=F D=F
   time step     :     0.2947435 fs     power     :   0.4738293E-07
   step length   :     0.0945417 a0     speed     :   0.7758796E-02
 * RMSD in coord.:     0.0373669 a0     energy gain  -0.7044498E+00 Eh

........................................................................
.............................. CYCLE   21 ..............................
........................................................................

 iter      E             dE          RMSdq      gap      omega  full diag
   1  -3770.8117135 -0.377081E+04  0.583E-03   10.64       0.0  T
   2  -3770.8117352 -0.216452E-04  0.371E-03   10.64       1.0  T
   3  -3770.8117353 -0.134602E-06  0.135E-03   10.64       1.2  T
   4  -3770.8117360 -0.701482E-06  0.366E-04   10.64       4.6  T
   5  -3770.8117362 -0.162595E-06  0.944E-05   10.64      17.8  T
     SCC iter.                  ...        6 min, 10.889 sec
     gradient                   ...        4 min, 20.199 sec
 * total energy  : -3716.0671931 Eh     change    :  -0.1301582E-02 Eh
   gradient norm :     0.1111882 Eh/a0  converged?    E=F G=F D=F
   time step     :     0.2500000 fs     power     :   0.2717982E-07
   step length   :     0.0749864 a0     speed     :   0.7255336E-02

........................................................................
.............................. CYCLE   22 ..............................
........................................................................

 iter      E             dE          RMSdq      gap      omega  full diag
   1  -3770.7656435 -0.377077E+04  0.481E-03   10.65       0.0  T
   2  -3770.7656536 -0.101277E-04  0.306E-03   10.65       1.0  T
   3  -3770.7656535  0.102084E-06  0.875E-04   10.65       1.9  T
   4  -3770.7656540 -0.539327E-06  0.250E-04   10.65       6.7  T
     SCC iter.                  ...        4 min, 56.462 sec
     gradient                   ...        4 min, 20.515 sec
 * total energy  : -3716.0687708 Eh     change    :  -0.1577645E-02 Eh
   gradient norm :     0.1231657 Eh/a0  converged?    E=F G=F D=F
   time step     :     0.2500000 fs     power     :   0.6022759E-07
   step length   :     0.0697651 a0     speed     :   0.6750147E-02

........................................................................
.............................. CYCLE   23 ..............................
........................................................................

 iter      E             dE          RMSdq      gap      omega  full diag
   1  -3770.7539256 -0.377075E+04  0.419E-03   10.65       0.0  T
   2  -3770.7539287 -0.310309E-05  0.261E-03   10.65       1.0  T
   3  -3770.7539286  0.116478E-06  0.400E-04   10.65       4.2  T
   4  -3770.7539289 -0.326787E-06  0.148E-04   10.65      11.3  T
     SCC iter.                  ...        5 min,  0.315 sec
     gradient                   ...        4 min, 19.821 sec
 * total energy  : -3716.0712974 Eh     change    :  -0.2526601E-02 Eh
   gradient norm :     0.1281386 Eh/a0  converged?    E=F G=F D=F
   time step     :     0.2500000 fs     power     :   0.1211648E-06
   step length   :     0.0661759 a0     speed     :   0.6402874E-02

........................................................................
.............................. CYCLE   24 ..............................
........................................................................

 iter      E             dE          RMSdq      gap      omega  full diag
   1  -3770.7741536 -0.377077E+04  0.409E-03   10.66       0.0  T
   2  -3770.7741541 -0.492872E-06  0.246E-03   10.66       1.0  T
   3  -3770.7741542 -0.877808E-07  0.180E-04   10.66       9.3  T
   4  -3770.7741542 -0.457089E-07  0.990E-05   10.66      17.0  T
     SCC iter.                  ...        4 min, 57.984 sec
     gradient                   ...        4 min, 20.551 sec
 * total energy  : -3716.0749823 Eh     change    :  -0.3684957E-02 Eh
   gradient norm :     0.1260178 Eh/a0  converged?    E=F G=F D=F
   time step     :     0.2500000 fs     power     :   0.1860233E-06
   step length   :     0.0648053 a0     speed     :   0.6270265E-02

........................................................................
.............................. CYCLE   25 ..............................
........................................................................

 iter      E             dE          RMSdq      gap      omega  full diag
   1  -3770.8229919 -0.377082E+04  0.442E-03   10.67       0.0  T
   2  -3770.8229932 -0.129261E-05  0.257E-03   10.67       1.0  T
   3  -3770.8229932 -0.198634E-07  0.357E-04   10.67       4.7  T
   4  -3770.8229933 -0.149537E-06  0.113E-04   10.67      14.8  T
     SCC iter.                  ...        4 min, 57.586 sec
     gradient                   ...        4 min, 22.794 sec
 * total energy  : -3716.0796676 Eh     change    :  -0.4685231E-02 Eh
   gradient norm :     0.1177622 Eh/a0  converged?    E=F G=F D=F
   time step     :     0.2500000 fs     power     :   0.2371221E-06
   step length   :     0.0654837 a0     speed     :   0.6335896E-02

........................................................................
.............................. CYCLE   26 ..............................
........................................................................

 iter      E             dE          RMSdq      gap      omega  full diag
   1  -3770.9054960 -0.377091E+04  0.550E-03   10.68       0.0  T
   2  -3770.9055015 -0.548960E-05  0.314E-03   10.68       1.0  T
   3  -3770.9055014  0.117386E-06  0.754E-04   10.68       2.2  T
   4  -3770.9055019 -0.459764E-06  0.170E-04   10.68       9.9  T
     SCC iter.                  ...        5 min,  1.695 sec
     gradient                   ...        4 min, 20.642 sec
 * total energy  : -3716.0855319 Eh     change    :  -0.5864350E-02 Eh
   gradient norm :     0.1034630 Eh/a0  converged?    E=F G=F D=F
   time step     :     0.2750000 fs     power     :   0.2640040E-06
   step length   :     0.0749194 a0     speed     :   0.6589869E-02

........................................................................
.............................. CYCLE   27 ..............................
........................................................................

 iter      E             dE          RMSdq      gap      omega  full diag
   1  -3771.0232089 -0.377102E+04  0.680E-03   10.69       0.0  T
   2  -3771.0232219 -0.130552E-04  0.385E-03   10.69       1.0  T
   3  -3771.0232217  0.168766E-06  0.113E-03   10.69       1.5  T
   4  -3771.0232225 -0.778761E-06  0.247E-04   10.69       6.8  T
   5  -3771.0232226 -0.966861E-07  0.119E-04   10.69      14.2  T
     SCC iter.                  ...        6 min, 11.952 sec
     gradient                   ...        4 min, 22.043 sec
 * total energy  : -3716.0920497 Eh     change    :  -0.6517774E-02 Eh
   gradient norm :     0.0854311 Eh/a0  converged?    E=F G=F D=F
   time step     :     0.3025000 fs     power     :   0.2563591E-06
   step length   :     0.0871167 a0     speed     :   0.6966124E-02

........................................................................
.............................. CYCLE   28 ..............................
........................................................................

 iter      E             dE          RMSdq      gap      omega  full diag
   1  -3771.1737747 -0.377117E+04  0.807E-03   10.70       0.0  T
   2  -3771.1737970 -0.222774E-04  0.455E-03   10.70       1.0  T
   3  -3771.1737968  0.160997E-06  0.142E-03   10.70       1.2  T
   4  -3771.1737978 -0.102035E-05  0.316E-04   10.70       5.3  T
   5  -3771.1737980 -0.160433E-06  0.133E-04   10.70      12.7  T
   6  -3771.1737980 -0.187702E-07  0.806E-05   10.70      20.9  T
     SCC iter.                  ...        7 min, 23.197 sec
     gradient                   ...        4 min, 25.497 sec
 * total energy  : -3716.0984229 Eh     change    :  -0.6373172E-02 Eh
   gradient norm :     0.0701290 Eh/a0  converged?    E=F G=F D=F
   time step     :     0.3327500 fs     power     :   0.2144891E-06
   step length   :     0.1014077 a0     speed     :   0.7371707E-02

........................................................................
.............................. CYCLE   29 ..............................
........................................................................

 iter      E             dE          RMSdq      gap      omega  full diag
   1  -3771.3460863 -0.377135E+04  0.895E-03   10.71       0.0  T
   2  -3771.3461138 -0.275469E-04  0.503E-03   10.71       1.0  T
   3  -3771.3461137  0.131660E-06  0.153E-03   10.71       1.1  T
   4  -3771.3461147 -0.106214E-05  0.348E-04   10.71       4.8  T
   5  -3771.3461149 -0.193990E-06  0.135E-04   10.71      12.5  T
   6  -3771.3461150 -0.160658E-07  0.782E-05   10.71      21.5  T
     SCC iter.                  ...        7 min, 23.322 sec
     gradient                   ...        4 min, 19.752 sec
 * total energy  : -3716.1039634 Eh     change    :  -0.5540524E-02 Eh
   gradient norm :     0.0672137 Eh/a0  converged?    E=F G=F D=F
   time step     :     0.3660250 fs     power     :   0.1577767E-06
   step length   :     0.1162848 a0     speed     :   0.7684705E-02

........................................................................
.............................. CYCLE   30 ..............................
........................................................................

 iter      E             dE          RMSdq      gap      omega  full diag
   1  -3771.5164099 -0.377152E+04  0.902E-03   10.72       0.0  T
   2  -3771.5164323 -0.223976E-04  0.504E-03   10.72       1.0  T
   3  -3771.5164323 -0.109117E-07  0.133E-03   10.72       1.3  T
   4  -3771.5164331 -0.727799E-06  0.307E-04   10.72       5.5  T
   5  -3771.5164332 -0.143531E-06  0.131E-04   10.72      12.9  T
     SCC iter.                  ...        6 min,  9.698 sec
     gradient                   ...        4 min, 20.014 sec
 * total energy  : -3716.1087241 Eh     change    :  -0.4760690E-02 Eh
   gradient norm :     0.0754119 Eh/a0  converged?    E=F G=F D=F
   time step     :     0.4026275 fs     power     :   0.1210259E-06
   step length   :     0.1295122 a0     speed     :   0.7780765E-02

........................................................................
.............................. CYCLE   31 ..............................
........................................................................

 iter      E             dE          RMSdq      gap      omega  full diag
   1  -3771.6573316 -0.377166E+04  0.841E-03   10.72       0.0  T
   2  -3771.6573419 -0.102878E-04  0.473E-03   10.72       1.0  T
   3  -3771.6573422 -0.288068E-06  0.863E-04   10.72       1.9  T
   4  -3771.6573424 -0.226600E-06  0.202E-04   10.72       8.3  T
     SCC iter.                  ...        4 min, 55.953 sec
     gradient                   ...        4 min, 20.619 sec
 * total energy  : -3716.1136133 Eh     change    :  -0.4889234E-02 Eh
   gradient norm :     0.0817508 Eh/a0  converged?    E=F G=F D=F
   time step     :     0.4428903 fs     power     :   0.1213224E-06
   step length   :     0.1415228 a0     speed     :   0.7729391E-02

........................................................................
.............................. CYCLE   32 ..............................
........................................................................

 iter      E             dE          RMSdq      gap      omega  full diag
   1  -3771.7460803 -0.377175E+04  0.776E-03   10.73       0.0  T
   2  -3771.7460831 -0.277262E-05  0.454E-03   10.73       1.0  T
   3  -3771.7460830  0.130733E-06  0.624E-04   10.73       2.7  T
   4  -3771.7460837 -0.688431E-06  0.187E-04   10.73       9.0  T
     SCC iter.                  ...        4 min, 54.146 sec
     gradient                   ...        4 min, 20.923 sec
 * total energy  : -3716.1195490 Eh     change    :  -0.5935718E-02 Eh
   gradient norm :     0.0778345 Eh/a0  converged?    E=F G=F D=F
   time step     :     0.4871793 fs     power     :   0.1402366E-06
   step length   :     0.1555885 a0     speed     :   0.7725095E-02

........................................................................
.............................. CYCLE   33 ..............................
........................................................................

 iter      E             dE          RMSdq      gap      omega  full diag
   1  -3771.7681010 -0.377177E+04  0.774E-03   10.74       0.0  T
   2  -3771.7681114 -0.104436E-04  0.485E-03   10.74       1.0  T
   3  -3771.7681100  0.138677E-05  0.113E-03   10.74       1.5  T
   4  -3771.7681126 -0.256074E-05  0.221E-04   10.74       7.6  T
   5  -3771.7681126 -0.330624E-07  0.122E-04   10.74      13.8  T
   6  -3771.7681126 -0.595401E-08  0.491E-05   10.74      34.2  T
     SCC iter.                  ...        7 min, 26.062 sec
     gradient                   ...        4 min, 19.995 sec
 * total energy  : -3716.1264225 Eh     change    :  -0.6873480E-02 Eh
   gradient norm :     0.0650528 Eh/a0  converged?    E=F G=F D=F
   time step     :     0.5358972 fs     power     :   0.1420619E-06
   step length   :     0.1741226 a0     speed     :   0.7859388E-02

........................................................................
.............................. CYCLE   34 ..............................
........................................................................

 iter      E             dE          RMSdq      gap      omega  full diag
   1  -3771.7261888 -0.377173E+04  0.836E-03   10.74       0.0  T
   2  -3771.7262188 -0.299311E-04  0.544E-03   10.74       1.0  T
   3  -3771.7262181  0.630896E-06  0.166E-03   10.74       1.0  T
   4  -3771.7262205 -0.234158E-05  0.393E-04   10.75       4.3  T
   5  -3771.7262207 -0.212416E-06  0.152E-04   10.75      11.1  T
   6  -3771.7262207 -0.142891E-07  0.775E-05   10.75      21.7  T
     SCC iter.                  ...        7 min, 19.874 sec
     gradient                   ...        4 min, 22.200 sec
 * total energy  : -3716.1330320 Eh     change    :  -0.6609541E-02 Eh
   gradient norm :     0.0574620 Eh/a0  converged?    E=F G=F D=F
   time step     :     0.5894869 fs     power     :   0.1116463E-06
   step length   :     0.1964281 a0     speed     :   0.8060177E-02

........................................................................
.............................. CYCLE   35 ..............................
........................................................................

 iter      E             dE          RMSdq      gap      omega  full diag
   1  -3771.6584813 -0.377166E+04  0.893E-03   10.76       0.0  T
   2  -3771.6585160 -0.346604E-04  0.572E-03   10.76       1.0  T
   3  -3771.6585159  0.119074E-06  0.160E-03   10.76       1.1  T
   4  -3771.6585175 -0.158534E-05  0.489E-04   10.76       3.4  T
   5  -3771.6585178 -0.294996E-06  0.173E-04   10.76       9.7  T
   6  -3771.6585178 -0.154009E-07  0.751E-05   10.76      22.4  T
     SCC iter.                  ...        7 min, 22.368 sec
     gradient                   ...        4 min, 22.019 sec
 * total energy  : -3716.1387728 Eh     change    :  -0.5740728E-02 Eh
   gradient norm :     0.0632241 Eh/a0  converged?    E=F G=F D=F
   time step     :     0.6484356 fs     power     :   0.8359814E-07
   step length   :     0.2183068 a0     speed     :   0.8143583E-02

........................................................................
.............................. CYCLE   36 ..............................
........................................................................

 iter      E             dE          RMSdq      gap      omega  full diag
   1  -3771.6267984 -0.377163E+04  0.993E-03   10.78       0.0  T
   2  -3771.6268138 -0.153598E-04  0.597E-03   10.78       1.0  T
   3  -3771.6268146 -0.784074E-06  0.894E-04   10.78       1.9  T
   4  -3771.6268150 -0.435885E-06  0.319E-04   10.78       5.3  T
     SCC iter.                  ...        4 min, 54.943 sec
     gradient                   ...        4 min, 21.528 sec
 * total energy  : -3716.1447497 Eh     change    :  -0.5976900E-02 Eh
   gradient norm :     0.0634634 Eh/a0  converged?    E=F G=F D=F
   time step     :     0.7132792 fs     power     :   0.8528009E-07
   step length   :     0.2389680 a0     speed     :   0.8103924E-02

........................................................................
.............................. CYCLE   37 ..............................
........................................................................

 iter      E             dE          RMSdq      gap      omega  full diag
   1  -3771.6771109 -0.377168E+04  0.120E-02   10.81       0.0  T
   2  -3771.6771190 -0.804283E-05  0.691E-03   10.81       1.0  T
   3  -3771.6771188  0.194249E-06  0.122E-03   10.81       1.4  T
   4  -3771.6771208 -0.204541E-05  0.345E-04   10.81       4.9  T
   5  -3771.6771208 -0.150490E-07  0.124E-04   10.81      13.6  T
   6  -3771.6771208 -0.609862E-08  0.322E-05   10.81      52.2  T
     SCC iter.                  ...        7 min, 17.617 sec
     gradient                   ...        4 min, 21.996 sec
 * total energy  : -3716.1513047 Eh     change    :  -0.6554999E-02 Eh
   gradient norm :     0.0521911 Eh/a0  converged?    E=F G=F D=F
   time step     :     0.7846071 fs     power     :   0.7945162E-07
   step length   :     0.2638245 a0     speed     :   0.8133509E-02

........................................................................
.............................. CYCLE   38 ..............................
........................................................................

 iter      E             dE          RMSdq      gap      omega  full diag
   1  -3771.8080421 -0.377181E+04  0.132E-02   10.84       0.0  T
   2  -3771.8080654 -0.233214E-04  0.762E-03   10.84       1.0  T
   3  -3771.8080643  0.112034E-05  0.169E-03   10.84       1.0  T
   4  -3771.8080676 -0.332606E-05  0.357E-04   10.84       4.7  T
   5  -3771.8080677 -0.106865E-06  0.177E-04   10.84       9.5  T
   6  -3771.8080677 -0.872751E-08  0.577E-05   10.84      29.1  T
     SCC iter.                  ...        7 min, 21.304 sec
     gradient                   ...        4 min, 26.367 sec
 * total energy  : -3716.1567928 Eh     change    :  -0.5488180E-02 Eh
   gradient norm :     0.0531814 Eh/a0  converged?    E=F G=F D=F
   time step     :     0.8630678 fs     power     :   0.4641548E-07
   step length   :     0.2916123 a0     speed     :   0.8172897E-02

........................................................................
.............................. CYCLE   39 ..............................
........................................................................

 iter      E             dE          RMSdq      gap      omega  full diag
   1  -3771.9434927 -0.377194E+04  0.119E-02   10.87       0.0  T
   2  -3771.9435072 -0.144465E-04  0.691E-03   10.87       1.0  T
   3  -3771.9435076 -0.381126E-06  0.103E-03   10.87       1.6  T
   4  -3771.9435083 -0.785914E-06  0.273E-04   10.87       6.2  T
   5  -3771.9435084 -0.451173E-07  0.143E-04   10.87      11.8  T
     SCC iter.                  ...        6 min, 10.295 sec
     gradient                   ...        4 min, 21.757 sec
 * total energy  : -3716.1617358 Eh     change    :  -0.4942965E-02 Eh
   gradient norm :     0.0578406 Eh/a0  converged?    E=F G=F D=F
   time step     :     0.9493746 fs     power     :   0.4146953E-07
   step length   :     0.3151165 a0     speed     :   0.8028764E-02

........................................................................
.............................. CYCLE   40 ..............................
........................................................................

 iter      E             dE          RMSdq      gap      omega  full diag
   1  -3772.0133286 -0.377201E+04  0.115E-02   10.88       0.0  T
   2  -3772.0133439 -0.153258E-04  0.686E-03   10.88       1.0  T
   3  -3772.0133421  0.184785E-05  0.156E-03   10.88       1.1  T
   4  -3772.0133465 -0.438799E-05  0.331E-04   10.88       5.1  T
   5  -3772.0133465 -0.356140E-07  0.177E-04   10.88       9.5  T
   6  -3772.0133465 -0.156247E-07  0.662E-05   10.88      25.4  T
     SCC iter.                  ...        7 min, 24.289 sec
     gradient                   ...        4 min, 19.602 sec
 * total energy  : -3716.1675130 Eh     change    :  -0.5777175E-02 Eh
   gradient norm :     0.0496593 Eh/a0  converged?    E=F G=F D=F
   time step     :     1.0443120 fs     power     :   0.4337940E-07
   step length   :     0.3425579 a0     speed     :   0.7934486E-02

........................................................................
.............................. CYCLE   41 ..............................
........................................................................

 iter      E             dE          RMSdq      gap      omega  full diag
   1  -3772.0338067 -0.377203E+04  0.125E-02   10.90       0.0  T
   2  -3772.0338372 -0.305198E-04  0.770E-03   10.91       1.0  T
   3  -3772.0338353  0.188761E-05  0.174E-03   10.91       1.0  T
   4  -3772.0338401 -0.482330E-05  0.422E-04   10.91       4.0  T
   5  -3772.0338403 -0.164412E-06  0.223E-04   10.91       7.6  T
   6  -3772.0338403 -0.309360E-07  0.995E-05   10.91      16.9  T
     SCC iter.                  ...        7 min, 26.772 sec
     gradient                   ...        4 min, 21.510 sec
 * total energy  : -3716.1725162 Eh     change    :  -0.5003165E-02 Eh
   gradient norm :     0.0496751 Eh/a0  converged?    E=F G=F D=F
   time step     :     1.1487432 fs     power     :   0.2204903E-07
   step length   :     0.3746948 a0     speed     :   0.7889868E-02

........................................................................
.............................. CYCLE   42 ..............................
........................................................................

 iter      E             dE          RMSdq      gap      omega  full diag
   1  -3772.0984676 -0.377210E+04  0.140E-02   10.94       0.0  T
   2  -3772.0984761 -0.846772E-05  0.816E-03   10.94       1.0  T
   3  -3772.0984764 -0.303248E-06  0.101E-03   10.94       1.7  T
   4  -3772.0984775 -0.116747E-05  0.322E-04   10.94       5.2  T
   5  -3772.0984776 -0.267069E-07  0.158E-04   10.94      10.7  T
   6  -3772.0984776 -0.106111E-07  0.486E-05   10.94      34.6  T
     SCC iter.                  ...        7 min, 23.783 sec
     gradient                   ...        4 min, 22.016 sec
 * total energy  : -3716.1765417 Eh     change    :  -0.4025572E-02 Eh
   gradient norm :     0.0470254 Eh/a0  converged?    E=F G=F D=F
   time step     :     1.2500000 fs     power     :   0.8564421E-08
   step length   :     0.3986366 a0     speed     :   0.7714046E-02
 * RMSD in coord.:     0.0597185 a0     energy gain  -0.1106502E+00 Eh

........................................................................
.............................. CYCLE   43 ..............................
........................................................................

 iter      E             dE          RMSdq      gap      omega  full diag
   1  -3772.1118649 -0.377211E+04  0.237E-03   10.95       0.0  T
   2  -3772.1118651 -0.270101E-06  0.137E-03   10.95       1.2  T
   3  -3772.1118651  0.139739E-07  0.204E-04   10.95       8.2  T
   4  -3772.1118652 -0.584396E-07  0.515E-05   10.95      32.6  T
     SCC iter.                  ...        5 min,  4.458 sec
     gradient                   ...        4 min, 22.134 sec
 * total energy  : -3716.1771120 Eh     change    :  -0.5702727E-03 Eh
   gradient norm :     0.0474011 Eh/a0  converged?    E=F G=F D=F
   time step     :     0.2500000 fs     power     :   0.2604642E-07
   step length   :     0.0730074 a0     speed     :   0.7063857E-02

........................................................................
.............................. CYCLE   44 ..............................
........................................................................

 iter      E             dE          RMSdq      gap      omega  full diag
   1  -3772.1246961 -0.377212E+04  0.227E-03   10.96       0.0  T
   2  -3772.1246966 -0.533068E-06  0.133E-03   10.96       1.3  T
   3  -3772.1246966  0.229861E-07  0.237E-04   10.96       7.1  T
   4  -3772.1246967 -0.697387E-07  0.498E-05   10.96      33.8  T
     SCC iter.                  ...        4 min, 58.607 sec
     gradient                   ...        4 min, 21.395 sec
 * total energy  : -3716.1779515 Eh     change    :  -0.8395395E-03 Eh
   gradient norm :     0.0440131 Eh/a0  converged?    E=F G=F D=F
   time step     :     0.2500000 fs     power     :   0.4031680E-07
   step length   :     0.0678730 a0     speed     :   0.6567077E-02

........................................................................
.............................. CYCLE   45 ..............................
........................................................................

 iter      E             dE          RMSdq      gap      omega  full diag
   1  -3772.1353703 -0.377214E+04  0.242E-03   10.96       0.0  T
   2  -3772.1353711 -0.858082E-06  0.146E-03   10.96       1.2  T
   3  -3772.1353711  0.114092E-07  0.268E-04   10.96       6.3  T
   4  -3772.1353712 -0.743798E-07  0.615E-05   10.96      27.3  T
     SCC iter.                  ...        4 min, 56.400 sec
     gradient                   ...        4 min, 20.618 sec
 * total energy  : -3716.1789391 Eh     change    :  -0.9875295E-03 Eh
   gradient norm :     0.0379325 Eh/a0  converged?    E=F G=F D=F
   time step     :     0.2500000 fs     power     :   0.4665574E-07
   step length   :     0.0641105 a0     speed     :   0.6203033E-02

........................................................................
.............................. CYCLE   46 ..............................
........................................................................

 iter      E             dE          RMSdq      gap      omega  full diag
   1  -3772.1422178 -0.377214E+04  0.267E-03   10.97       0.0  T
   2  -3772.1422188 -0.106112E-05  0.162E-03   10.97       1.0  T
   3  -3772.1422188 -0.635055E-08  0.282E-04   10.97       6.0  T
   4  -3772.1422189 -0.784080E-07  0.729E-05   10.97      23.1  T
     SCC iter.                  ...        4 min, 55.545 sec
     gradient                   ...        4 min, 22.554 sec
 * total energy  : -3716.1799136 Eh     change    :  -0.9745828E-03 Eh
   gradient norm :     0.0308412 Eh/a0  converged?    E=F G=F D=F
   time step     :     0.2500000 fs     power     :   0.4407489E-07
   step length   :     0.0613506 a0     speed     :   0.5935999E-02

........................................................................
.............................. CYCLE   47 ..............................
........................................................................

 iter      E             dE          RMSdq      gap      omega  full diag
   1  -3772.1435560 -0.377214E+04  0.287E-03   10.97       0.0  T
   2  -3772.1435571 -0.104505E-05  0.174E-03   10.97       1.0  T
   3  -3772.1435571 -0.219252E-07  0.278E-04   10.97       6.0  T
   4  -3772.1435572 -0.838331E-07  0.814E-05   10.97      20.7  T
     SCC iter.                  ...        4 min, 54.401 sec
     gradient                   ...        4 min, 21.439 sec
 * total energy  : -3716.1807384 Eh     change    :  -0.8247863E-03 Eh
   gradient norm :     0.0252461 Eh/a0  converged?    E=F G=F D=F
   time step     :     0.2500000 fs     power     :   0.3486341E-07
   step length   :     0.0591333 a0     speed     :   0.5721467E-02

........................................................................
.............................. CYCLE   48 ..............................
........................................................................

 iter      E             dE          RMSdq      gap      omega  full diag
   1  -3772.1374931 -0.377214E+04  0.320E-03   10.98       0.0  T
   2  -3772.1374941 -0.100433E-05  0.192E-03   10.98       1.0  T
   3  -3772.1374941 -0.270165E-07  0.296E-04   10.98       5.7  T
   4  -3772.1374942 -0.117605E-06  0.959E-05   10.98      17.5  T
     SCC iter.                  ...        4 min, 57.782 sec
     gradient                   ...        4 min, 22.472 sec
 * total energy  : -3716.1814004 Eh     change    :  -0.6619290E-03 Eh
   gradient norm :     0.0238044 Eh/a0  converged?    E=F G=F D=F
   time step     :     0.2750000 fs     power     :   0.2238764E-07
   step length   :     0.0626360 a0     speed     :   0.5509423E-02

........................................................................
.............................. CYCLE   49 ..............................
........................................................................

 iter      E             dE          RMSdq      gap      omega  full diag
   1  -3772.1231957 -0.377212E+04  0.328E-03   10.98       0.0  T
   2  -3772.1231965 -0.835030E-06  0.194E-03   10.98       1.0  T
   3  -3772.1231965 -0.598038E-08  0.318E-04   10.98       5.3  T
   4  -3772.1231967 -0.161688E-06  0.102E-04   10.98      16.4  T
     SCC iter.                  ...        5 min,  3.231 sec
     gradient                   ...        4 min, 21.627 sec
 * total energy  : -3716.1818875 Eh     change    :  -0.4871856E-03 Eh
   gradient norm :     0.0269084 Eh/a0  converged?    E=F G=F D=F
   time step     :     0.3025000 fs     power     :   0.1330462E-07
   step length   :     0.0653814 a0     speed     :   0.5228102E-02

........................................................................
.............................. CYCLE   50 ..............................
........................................................................

 iter      E             dE          RMSdq      gap      omega  full diag
   1  -3772.1026881 -0.377210E+04  0.316E-03   10.98       0.0  T
   2  -3772.1026889 -0.773531E-06  0.183E-03   10.98       1.0  T
   3  -3772.1026889  0.123673E-07  0.328E-04   10.98       5.1  T
   4  -3772.1026890 -0.170627E-06  0.957E-05   10.98      17.6  T
     SCC iter.                  ...        4 min, 59.862 sec
     gradient                   ...        4 min, 26.641 sec
 * total energy  : -3716.1823121 Eh     change    :  -0.4245839E-03 Eh
   gradient norm :     0.0307949 Eh/a0  converged?    E=F G=F D=F
   time step     :     0.3327500 fs     power     :   0.1129868E-07
   step length   :     0.0672698 a0     speed     :   0.4890092E-02

........................................................................
.............................. CYCLE   51 ..............................
........................................................................

 iter      E             dE          RMSdq      gap      omega  full diag
   1  -3772.0792299 -0.377208E+04  0.303E-03   10.98       0.0  T
   2  -3772.0792308 -0.887816E-06  0.173E-03   10.98       1.0  T
   3  -3772.0792308  0.111577E-07  0.322E-04   10.98       5.2  T
   4  -3772.0792310 -0.134648E-06  0.814E-05   10.98      20.6  T
     SCC iter.                  ...        4 min, 59.418 sec
     gradient                   ...        4 min, 20.730 sec
 * total energy  : -3716.1828280 Eh     change    :  -0.5158551E-03 Eh
   gradient norm :     0.0325646 Eh/a0  converged?    E=F G=F D=F
   time step     :     0.3660250 fs     power     :   0.1485418E-07
   step length   :     0.0691988 a0     speed     :   0.4573021E-02

........................................................................
.............................. CYCLE   52 ..............................
........................................................................

 iter      E             dE          RMSdq      gap      omega  full diag
   1  -3772.0565944 -0.377206E+04  0.308E-03   10.99       0.0  T
   2  -3772.0565954 -0.107507E-05  0.177E-03   10.99       1.0  T
   3  -3772.0565954  0.465934E-08  0.311E-04   10.99       5.4  T
   4  -3772.0565955 -0.932209E-07  0.678E-05   10.99      24.8  T
     SCC iter.                  ...        4 min, 56.987 sec
     gradient                   ...        4 min, 20.961 sec
 * total energy  : -3716.1835322 Eh     change    :  -0.7042561E-03 Eh
   gradient norm :     0.0312421 Eh/a0  converged?    E=F G=F D=F
   time step     :     0.4026275 fs     power     :   0.1982631E-07
   step length   :     0.0720522 a0     speed     :   0.4328716E-02

........................................................................
.............................. CYCLE   53 ..............................
........................................................................

 iter      E             dE          RMSdq      gap      omega  full diag
   1  -3772.0391082 -0.377204E+04  0.338E-03   10.99       0.0  T
   2  -3772.0391094 -0.114313E-05  0.197E-03   10.99       1.0  T
   3  -3772.0391094 -0.465843E-08  0.293E-04   10.99       5.7  T
   4  -3772.0391094 -0.734017E-07  0.612E-05   10.99      27.5  T
     SCC iter.                  ...        4 min, 55.150 sec
     gradient                   ...        4 min, 22.204 sec
 * total energy  : -3716.1844067 Eh     change    :  -0.8745012E-03 Eh
   gradient norm :     0.0273950 Eh/a0  converged?    E=F G=F D=F
   time step     :     0.4428903 fs     power     :   0.2202391E-07
   step length   :     0.0763505 a0     speed     :   0.4169949E-02

........................................................................
.............................. CYCLE   54 ..............................
........................................................................

 iter      E             dE          RMSdq      gap      omega  full diag
   1  -3772.0314890 -0.377203E+04  0.378E-03   10.99       0.0  T
   2  -3772.0314900 -0.959421E-06  0.223E-03   10.99       1.0  T
   3  -3772.0314900 -0.778664E-08  0.280E-04   10.99       6.0  T
   4  -3772.0314901 -0.965774E-07  0.762E-05   10.99      22.1  T
     SCC iter.                  ...        5 min,  8.052 sec
     gradient                   ...        4 min, 21.479 sec
 * total energy  : -3716.1853211 Eh     change    :  -0.9143702E-03 Eh
   gradient norm :     0.0232485 Eh/a0  converged?    E=F G=F D=F
   time step     :     0.4871793 fs     power     :   0.1940815E-07
   step length   :     0.0820539 a0     speed     :   0.4074040E-02

........................................................................
.............................. CYCLE   55 ..............................
........................................................................

 iter      E             dE          RMSdq      gap      omega  full diag
   1  -3772.0374047 -0.377204E+04  0.400E-03   11.00       0.0  T
   2  -3772.0374054 -0.760667E-06  0.236E-03   11.00       1.0  T
   3  -3772.0374054  0.148143E-07  0.312E-04   11.00       5.4  T
   4  -3772.0374056 -0.172469E-06  0.102E-04   11.00      16.5  T
     SCC iter.                  ...        4 min, 56.844 sec
     gradient                   ...        4 min, 22.168 sec
 * total energy  : -3716.1861244 Eh     change    :  -0.8032890E-03 Eh
   gradient norm :     0.0219137 Eh/a0  converged?    E=F G=F D=F
   time step     :     0.5358972 fs     power     :   0.1372497E-07
   step length   :     0.0883815 a0     speed     :   0.3989282E-02

........................................................................
.............................. CYCLE   56 ..............................
........................................................................

 iter      E             dE          RMSdq      gap      omega  full diag
   1  -3772.0557552 -0.377206E+04  0.385E-03   11.00       0.0  T
   2  -3772.0557563 -0.108888E-05  0.227E-03   11.00       1.0  T
   3  -3772.0557563  0.143114E-07  0.361E-04   11.00       4.7  T
   4  -3772.0557565 -0.193851E-06  0.114E-04   11.00      14.8  T
     SCC iter.                  ...        4 min, 54.080 sec
     gradient                   ...        4 min, 21.747 sec
 * total energy  : -3716.1867897 Eh     change    :  -0.6652647E-03 Eh
   gradient norm :     0.0237866 Eh/a0  converged?    E=F G=F D=F
   time step     :     0.5894869 fs     power     :   0.9536466E-08
   step length   :     0.0941338 a0     speed     :   0.3862659E-02

........................................................................
.............................. CYCLE   57 ..............................
........................................................................

 iter      E             dE          RMSdq      gap      omega  full diag
   1  -3772.0794520 -0.377208E+04  0.351E-03   11.00       0.0  T
   2  -3772.0794536 -0.162541E-05  0.206E-03   11.00       1.0  T
   3  -3772.0794536 -0.226787E-07  0.386E-04   11.00       4.4  T
   4  -3772.0794538 -0.125948E-06  0.107E-04   11.00      15.7  T
     SCC iter.                  ...        4 min, 54.195 sec
     gradient                   ...        4 min, 21.477 sec
 * total energy  : -3716.1874655 Eh     change    :  -0.6758774E-03 Eh
   gradient norm :     0.0260431 Eh/a0  converged?    E=F G=F D=F
   time step     :     0.6484356 fs     power     :   0.9818503E-08
   step length   :     0.0993881 a0     speed     :   0.3707512E-02

........................................................................
.............................. CYCLE   58 ..............................
........................................................................

 iter      E             dE          RMSdq      gap      omega  full diag
   1  -3772.0988378 -0.377210E+04  0.338E-03   11.00       0.0  T
   2  -3772.0988393 -0.141729E-05  0.198E-03   11.00       1.0  T
   3  -3772.0988393 -0.430086E-07  0.340E-04   11.00       4.9  T
   4  -3772.0988394 -0.769514E-07  0.906E-05   11.00      18.6  T
     SCC iter.                  ...        4 min, 59.272 sec
     gradient                   ...        4 min, 21.724 sec
 * total energy  : -3716.1883570 Eh     change    :  -0.8914899E-03 Eh
   gradient norm :     0.0258608 Eh/a0  converged?    E=F G=F D=F
   time step     :     0.7132792 fs     power     :   0.1342672E-07
   step length   :     0.1058700 a0     speed     :   0.3590280E-02

........................................................................
.............................. CYCLE   59 ..............................
........................................................................

 iter      E             dE          RMSdq      gap      omega  full diag
   1  -3772.1046950 -0.377210E+04  0.371E-03   11.00       0.0  T
   2  -3772.1046958 -0.771181E-06  0.217E-03   11.00       1.0  T
   3  -3772.1046958 -0.660366E-07  0.287E-04   11.00       5.9  T
   4  -3772.1046959 -0.797481E-07  0.982E-05   11.00      17.1  T
     SCC iter.                  ...        4 min, 57.749 sec
     gradient                   ...        4 min, 23.371 sec
 * total energy  : -3716.1895100 Eh     change    :  -0.1152917E-02 Eh
   gradient norm :     0.0223234 Eh/a0  converged?    E=F G=F D=F
   time step     :     0.7846071 fs     power     :   0.1568003E-07
   step length   :     0.1153362 a0     speed     :   0.3555729E-02

........................................................................
.............................. CYCLE   60 ..............................
........................................................................

 iter      E             dE          RMSdq      gap      omega  full diag
   1  -3772.0912977 -0.377209E+04  0.434E-03   11.01       0.0  T
   2  -3772.0912991 -0.140165E-05  0.252E-03   11.01       1.0  T
   3  -3772.0912992 -0.877717E-07  0.400E-04   11.01       4.2  T
   4  -3772.0912993 -0.133748E-06  0.120E-04   11.01      14.1  T
     SCC iter.                  ...        4 min, 55.448 sec
     gradient                   ...        4 min, 21.926 sec
 * total energy  : -3716.1906969 Eh     change    :  -0.1186919E-02 Eh
   gradient norm :     0.0201540 Eh/a0  converged?    E=F G=F D=F
   time step     :     0.8630678 fs     power     :   0.1298655E-07
   step length   :     0.1277648 a0     speed     :   0.3580810E-02

........................................................................
.............................. CYCLE   61 ..............................
........................................................................

 iter      E             dE          RMSdq      gap      omega  full diag
   1  -3772.0629077 -0.377206E+04  0.448E-03   11.01       0.0  T
   2  -3772.0629101 -0.242806E-05  0.258E-03   11.01       1.0  T
   3  -3772.0629102 -0.913888E-07  0.500E-04   11.01       3.4  T
   4  -3772.0629104 -0.145958E-06  0.121E-04   11.01      13.9  T
     SCC iter.                  ...        5 min,  2.498 sec
     gradient                   ...        4 min, 21.476 sec
 * total energy  : -3716.1918133 Eh     change    :  -0.1116396E-02 Eh
   gradient norm :     0.0228477 Eh/a0  converged?    E=F G=F D=F
   time step     :     0.9493746 fs     power     :   0.1108256E-07
   step length   :     0.1406041 a0     speed     :   0.3582412E-02

........................................................................
.............................. CYCLE   62 ..............................
........................................................................

 iter      E             dE          RMSdq      gap      omega  full diag
   1  -3772.0366760 -0.377204E+04  0.424E-03   11.01       0.0  T
   2  -3772.0366778 -0.177756E-05  0.243E-03   11.01       1.0  T
   3  -3772.0366779 -0.970722E-07  0.441E-04   11.01       3.8  T
   4  -3772.0366780 -0.121641E-06  0.118E-04   11.01      14.3  T
     SCC iter.                  ...        4 min, 57.467 sec
     gradient                   ...        4 min, 20.306 sec
 * total energy  : -3716.1931691 Eh     change    :  -0.1355786E-02 Eh
   gradient norm :     0.0213660 Eh/a0  converged?    E=F G=F D=F
   time step     :     1.0443120 fs     power     :   0.1364433E-07
   step length   :     0.1544829 a0     speed     :   0.3578205E-02

........................................................................
.............................. CYCLE   63 ..............................
[...]
  3286   6 C     3287   6 C                                       1.5327304
  3287   6 C     3288   6 C                                       1.5286070
  3287   6 C     3289   6 C                                       1.5355015
  3289   6 C     3290   6 C                                       1.5341706
  3290   6 C     3291   6 C                                       1.5282275
  3290   6 C     3292   6 C                                       1.5371073
  3292   6 C     3293   6 C                                       1.5339145
  3293   6 C     3294   6 C                                       1.5287688
  3293   6 C     3295   6 C                                       1.5357394
  3295   6 C     3296   6 C                                       1.5327823
  3296   6 C     3297   6 C                                       1.5283497
  3296   6 C     3298   6 C                                       1.5369335
  3298   6 C     3299   6 C                                       1.5331984
  3299   6 C     3300   6 C                                       1.5292093
  3299   6 C     3301   6 C                                       1.5374057
  3302   6 C     3303   6 C                                       1.5294585
  3302   6 C     3304   6 C                                       1.5356293
  3304   6 C     3305   6 C                                       1.5370688
  3305   6 C     3306   6 C                                       1.5294953
  3305   6 C     3307   6 C                                       1.5322226
  3307   6 C     3308   6 C                                       1.5369670
  3308   6 C     3309   6 C                                       1.5269570
  3308   6 C     3310   6 C                                       1.5338446
  3310   6 C     3311   6 C                                       1.5360066
  3311   6 C     3312   6 C                                       1.5285968
  3311   6 C     3313   6 C                                       1.5333415
  3313   6 C     3314   6 C                                       1.5337384
  3314   6 C     3315   6 C                                       1.5307158
  3316   6 C     3317   6 C                                       1.5384033
  3317   6 C     3318   6 C                                       1.5290485
  3317   6 C     3319   6 C                                       1.5325780
  3319   6 C     3320   6 C                                       1.5377941
  3320   6 C     3321   6 C                                       1.5281574
  3320   6 C     3322   6 C                                       1.5320285
  3322   6 C     3323   6 C                                       1.5377854
  3323   6 C     3324   6 C                                       1.5291876
  3323   6 C     3325   6 C                                       1.5347100
  3325   6 C     3326   6 C                                       1.5358966
  3326   6 C     3327   6 C                                       1.5291434
  3326   6 C     3328   6 C                                       1.5322045
  3328   6 C     3329   6 C                                       1.5367124
  3329   6 C     3330   6 C                                       1.5291529
  3329   6 C     3331   6 C                                       1.5346311
  3332   6 C     3333   6 C                                       1.5300568
  3332   6 C     3334   6 C                                       1.5352219
  3334   6 C     3335   6 C                                       1.5318701
  3335   6 C     3336   6 C                                       1.5284554
  3335   6 C     3337   6 C                                       1.5354546
  3337   6 C     3338   6 C                                       1.5339853
  3338   6 C     3339   6 C                                       1.5262805
  3338   6 C     3340   6 C                                       1.5357757
  3340   6 C     3341   6 C                                       1.5350774
  3341   6 C     3342   6 C                                       1.5280397
  3341   6 C     3343   6 C                                       1.5330514
  3343   6 C     3344   6 C                                       1.5381501
  3344   6 C     3345   6 C                                       1.5279375
  3344   6 C     3346   6 C                                       1.5343592
  3346   6 C     3347   6 C                                       1.5311519
  3347   6 C     3348   6 C                                       1.5280775
  3347   6 C     3349   6 C                                       1.5355125
  3349   6 C     3350   6 C                                       1.5339694
  3350   6 C     3351   6 C                                       1.5254498
  3350   6 C     3352   6 C                                       1.5347650
  3352   6 C     3353   6 C                                       1.5270635
  3353   6 C     3354   6 C                                       1.5243328
  3265   6 C     3355   1 H                                       1.0879383
  3265   6 C     3356   1 H                                       1.0876959
  3265   6 C     3357   1 H                                       1.0861306
  3354   6 C     3358   1 H                                       1.0883257
  3354   6 C     3359   1 H                                       1.0879085
  3354   6 C     3360   1 H                                       1.0884241
  3352   6 C     3361   1 H                                       1.0935525
  3352   6 C     3362   1 H                                       1.0929077
  3349   6 C     3363   1 H                                       1.0942245
  3349   6 C     3364   1 H                                       1.0933257
  3347   6 C     3365   1 H                                       1.0924280
  3348   6 C     3366   1 H                                       1.0873955
  3348   6 C     3367   1 H                                       1.0883481
  3348   6 C     3368   1 H                                       1.0861722
  3346   6 C     3369   1 H                                       1.0922626
  3346   6 C     3370   1 H                                       1.0937539
  3343   6 C     3371   1 H                                       1.0916050
  3343   6 C     3372   1 H                                       1.0919719
  3350   6 C     3373   1 H                                       1.0949075
  3351   6 C     3374   1 H                                       1.0874553
  3351   6 C     3375   1 H                                       1.0873020
  3351   6 C     3376   1 H                                       1.0870079
  3344   6 C     3377   1 H                                       1.0929956
  3345   6 C     3378   1 H                                       1.0877805
  3345   6 C     3379   1 H                                       1.0873998
  3345   6 C     3380   1 H                                       1.0884365
  3341   6 C     3381   1 H                                       1.0922780
  3342   6 C     3382   1 H                                       1.0882027
  3342   6 C     3383   1 H                                       1.0875596
  3342   6 C     3384   1 H                                       1.0880656
  3340   6 C     3385   1 H                                       1.0934076
  3340   6 C     3386   1 H                                       1.0921779
  3338   6 C     3387   1 H                                       1.0944336
  3339   6 C     3388   1 H                                       1.0857851
  3339   6 C     3389   1 H                                       1.0871444
  3339   6 C     3390   1 H                                       1.0884268
  3337   6 C     3391   1 H                                       1.0938474
  3337   6 C     3392   1 H                                       1.0932496
  3335   6 C     3393   1 H                                       1.0912836
  3336   6 C     3394   1 H                                       1.0883899
  3336   6 C     3395   1 H                                       1.0883537
  3336   6 C     3396   1 H                                       1.0872721
  3334   6 C     3397   1 H                                       1.0917300
  3334   6 C     3398   1 H                                       1.0940976
  3332   6 C     3399   1 H                                       1.0935857
  3333   6 C     3400   1 H                                       1.0884165
  3333   6 C     3401   1 H                                       1.0882598
  3333   6 C     3402   1 H                                       1.0883795
  3331   6 C     3403   1 H                                       1.0901288
  3331   6 C     3404   1 H                                       1.0933022
  3329   6 C     3405   1 H                                       1.0926827
  3330   6 C     3406   1 H                                       1.0888594
  3330   6 C     3407   1 H                                       1.0880451
  3330   6 C     3408   1 H                                       1.0876581
  3328   6 C     3409   1 H                                       1.0918575
  3328   6 C     3410   1 H                                       1.0931030
  3326   6 C     3411   1 H                                       1.0930669
  3327   6 C     3412   1 H                                       1.0880182
  3327   6 C     3413   1 H                                       1.0857285
  3327   6 C     3414   1 H                                       1.0885042
  3325   6 C     3415   1 H                                       1.0923988
  3325   6 C     3416   1 H                                       1.0923542
  3323   6 C     3417   1 H                                       1.0951157
  3324   6 C     3418   1 H                                       1.0884216
  3324   6 C     3419   1 H                                       1.0890200
  3324   6 C     3420   1 H                                       1.0865365
  3322   6 C     3421   1 H                                       1.0909162
  3322   6 C     3422   1 H                                       1.0944059
  3320   6 C     3423   1 H                                       1.0923151
  3321   6 C     3424   1 H                                       1.0888459
  3321   6 C     3425   1 H                                       1.0862467
  3321   6 C     3426   1 H                                       1.0886892
  3319   6 C     3427   1 H                                       1.0902464
  3319   6 C     3428   1 H                                       1.0938442
  3317   6 C     3429   1 H                                       1.0906781
  3318   6 C     3430   1 H                                       1.0880426
  3318   6 C     3431   1 H                                       1.0889740
  3318   6 C     3432   1 H                                       1.0854914
  3316   6 C     3433   1 H                                       1.0937945
  3316   6 C     3434   1 H                                       1.0934456
  3314   6 C     3435   1 H                                       1.0970429
  3315   6 C     3436   1 H                                       1.0877878
  3315   6 C     3437   1 H                                       1.0863968
  3315   6 C     3438   1 H                                       1.0888649
  3313   6 C     3439   1 H                                       1.0909083
  3313   6 C     3440   1 H                                       1.0943708
  3311   6 C     3441   1 H                                       1.0916658
  3312   6 C     3442   1 H                                       1.0877409
  3312   6 C     3443   1 H                                       1.0867095
  3312   6 C     3444   1 H                                       1.0887690
  3310   6 C     3445   1 H                                       1.0923377
  3310   6 C     3446   1 H                                       1.0918491
  3308   6 C     3447   1 H                                       1.0935543
  3309   6 C     3448   1 H                                       1.0879540
  3309   6 C     3449   1 H                                       1.0864327
  3309   6 C     3450   1 H                                       1.0881949
  3307   6 C     3451   1 H                                       1.0908930
  3307   6 C     3452   1 H                                       1.0923572
  3305   6 C     3453   1 H                                       1.0933507
  3306   6 C     3454   1 H                                       1.0880308
  3306   6 C     3455   1 H                                       1.0883269
  3306   6 C     3456   1 H                                       1.0871093
  3304   6 C     3457   1 H                                       1.0913927
  3304   6 C     3458   1 H                                       1.0941622
  3302   6 C     3459   1 H                                       1.0943184
  3303   6 C     3460   1 H                                       1.0867295
  3303   6 C     3461   1 H                                       1.0885257
  3303   6 C     3462   1 H                                       1.0883307
  3301   6 C     3463   1 H                                       1.0927504
  3301   6 C     3464   1 H                                       1.0925896
  3299   6 C     3465   1 H                                       1.0950659
  3300   6 C     3466   1 H                                       1.0883213
  3300   6 C     3467   1 H                                       1.0864434
  3300   6 C     3468   1 H                                       1.0883275
  3298   6 C     3469   1 H                                       1.0922472
  3298   6 C     3470   1 H                                       1.0940449
  3296   6 C     3471   1 H                                       1.0936764
  3297   6 C     3472   1 H                                       1.0884386
  3297   6 C     3473   1 H                                       1.0862370
  3297   6 C     3474   1 H                                       1.0865123
  3295   6 C     3475   1 H                                       1.0921050
  3295   6 C     3476   1 H                                       1.0938776
  3293   6 C     3477   1 H                                       1.0933562
  3294   6 C     3478   1 H                                       1.0869643
  3294   6 C     3479   1 H                                       1.0873332
  3294   6 C     3480   1 H                                       1.0889883
  3292   6 C     3481   1 H                                       1.0914411
  3292   6 C     3482   1 H                                       1.0932450
  3290   6 C     3483   1 H                                       1.0938677
  3291   6 C     3484   1 H                                       1.0871801
  3291   6 C     3485   1 H                                       1.0880731
  3291   6 C     3486   1 H                                       1.0887540
  3289   6 C     3487   1 H                                       1.0920622
  3289   6 C     3488   1 H                                       1.0934521
  3287   6 C     3489   1 H                                       1.0948034
  3288   6 C     3490   1 H                                       1.0884815
  3288   6 C     3491   1 H                                       1.0886760
  3288   6 C     3492   1 H                                       1.0872520
  3286   6 C     3493   1 H                                       1.0893603
  3286   6 C     3494   1 H                                       1.0925385
  3284   6 C     3495   1 H                                       1.0940546
  3285   6 C     3496   1 H                                       1.0884389
  3285   6 C     3497   1 H                                       1.0885078
  3285   6 C     3498   1 H                                       1.0878967
  3283   6 C     3499   1 H                                       1.0913042
  3283   6 C     3500   1 H                                       1.0938435
  3281   6 C     3501   1 H                                       1.0933952
  3282   6 C     3502   1 H                                       1.0867969
  3282   6 C     3503   1 H                                       1.0882177
  3282   6 C     3504   1 H                                       1.0883296
  3280   6 C     3505   1 H                                       1.0918274
  3280   6 C     3506   1 H                                       1.0940091
  3278   6 C     3507   1 H                                       1.0937147
  3279   6 C     3508   1 H                                       1.0857900
  3279   6 C     3509   1 H                                       1.0879858
  3279   6 C     3510   1 H                                       1.0882281
  3277   6 C     3511   1 H                                       1.0929357
  3277   6 C     3512   1 H                                       1.0935341
  3275   6 C     3513   1 H                                       1.0948198
  3276   6 C     3514   1 H                                       1.0870598
  3276   6 C     3515   1 H                                       1.0882031
  3276   6 C     3516   1 H                                       1.0868195
  3274   6 C     3517   1 H                                       1.0898406
  3274   6 C     3518   1 H                                       1.0921407
  3272   6 C     3519   1 H                                       1.0975097
  3273   6 C     3520   1 H                                       1.0860618
  3273   6 C     3521   1 H                                       1.0882121
  3273   6 C     3522   1 H                                       1.0869716
  3271   6 C     3523   1 H                                       1.0941528
  3271   6 C     3524   1 H                                       1.0942979
  3269   6 C     3525   1 H                                       1.0934673
  3270   6 C     3526   1 H                                       1.0884915
  3270   6 C     3527   1 H                                       1.0867428
  3270   6 C     3528   1 H                                       1.0844662
  3268   6 C     3529   1 H                                       1.0932025
  3268   6 C     3530   1 H                                       1.0942428
  3266   6 C     3531   1 H                                       1.0942724
  3267   6 C     3532   1 H                                       1.0865955
  3267   6 C     3533   1 H                                       1.0890498
  3267   6 C     3534   1 H                                       1.0873460
  3353   6 C     3535   1 H                                       1.0916683
  3353   6 C     3536   1 H                                       1.0929898

 * 2 distinct bonds (by element types)

   Z      Z             #   av. dist./Å        max./Å        min./Å
   1 H    6 C        2366     1.0903037     1.0993374     1.0832333
   6 C    6 C        1110     1.5324276     1.5400651     1.5223455


optimized geometry written to: xtbopt.xyz


           -------------------------------------------------
          | TOTAL ENERGY            -3716.258774473669 Eh   |
          | GRADIENT NORM               0.000727818182 Eh/α |
          | HOMO-LUMO GAP              11.171436651021 eV   |
           -------------------------------------------------

------------------------------------------------------------------------
 * finished run on 2024/06/25 at 23:56:57.707     
------------------------------------------------------------------------
 total:
 * wall-time:     4 d, 13 h, 49 min, 47.990 sec
 *  cpu-time:    24 d, 19 h, 29 min, 58.680 sec
 * ratio c/w:     5.422 speedup
 SCF:
 * wall-time:     0 d,  0 h,  8 min, 41.294 sec
 *  cpu-time:     0 d,  0 h, 46 min, 44.740 sec
 * ratio c/w:     5.380 speedup
 ANC optimizer:
 * wall-time:     4 d, 13 h, 39 min, 38.999 sec
 *  cpu-time:    24 d, 18 h, 41 min, 29.368 sec
 * ratio c/w:     5.423 speedup

