3536
 energy: -3716.258774473669 gnorm: 0.000727818182 xtb: 6.6.1 (8d0f1dd)
C           70.07408121680807       57.31372270628869       52.09251209371433
C           70.21184892642131       57.89607949574895       53.49852710728059
C           70.93612407578249       59.23880494328538       53.43667881890966
C           70.94082087024832       56.88591567568580       54.39331652180917
C           71.22381699945667       57.31456209154575       55.84009262102820
C           71.99756631931695       56.19374951747227       56.53625577537272
C           69.92981933404855       57.63833755925391       56.59461120394673
C           70.10954536985454       58.31943869818271       57.95980827496889
C           68.77459534306375       58.28980777200938       58.70357159607673
C           70.60530635951677       59.75947228990744       57.78136605887885
C           71.13574756514738       60.44791092031647       59.04655917011672
C           71.21702132435097       61.95207354463687       58.78848326905162
C           72.50674744444329       59.88369796196977       59.43919485960426
C           72.96836672529395       60.22820453533105       60.86174089096171
C           74.42213880289556       59.78817408155004       61.04007112775886
C           72.06539162584743       59.58371156881264       61.93239951017600
C           71.35139519530708       60.59993925518010       62.83259722901558
C           72.34547101460979       61.24054129337954       63.80089421467994
C           70.21258771277506       59.94526475704195       63.62758648351123
C           68.95913309061521       59.60994383605911       62.81168368897780
C           68.25500722706364       60.88227302439713       62.34181725339668
C           67.96614055516292       58.76734224801630       63.62590004115265
C           68.45016991201864       57.37929952846679       64.06611096996087
C           68.98232459997492       56.57156740677862       62.88155016766554
C           67.30959675445266       56.59037412708135       64.72896201215443
C           66.83264399767629       57.09805212815410       66.09425370555523
C           67.91863899358734       56.92065131333875       67.15613345325715
C           65.56800700258569       56.35243878936905       66.55250481791003
C           64.32408337000430       56.54895233017230       65.67863540450507
C           64.00628523118542       58.03198078537545       65.49217943787316
C           63.08984668501480       55.86710286456357       66.28451798115931
C           63.14357454144345       54.34341060471559       66.45629561365925
C           63.53707701385733       53.63908317842813       65.15847802539143
C           61.76831684645029       53.81340899909113       66.89214770125366
C           61.27690516379587       54.27073860671039       68.26809336865578
C           62.10264774793124       53.62575327642063       69.38249157143795
C           59.80061712509761       53.91507795945500       68.48800304641325
C           58.77057433143602       54.54457341336796       67.53825391448711
C           58.83024157494977       56.06777539081197       67.57508232975481
C           57.38654498810595       54.02175172295378       67.94759018316512
C           56.17002783470099       54.50805337127470       67.14616947347882
C           54.92676871785832       53.84584383133926       67.74119294011648
C           56.31141311897970       54.17304802132448       65.65944306512988
C           55.18907743276586       54.67377599794198       64.74057916600711
C           55.39387204030958       54.05929385831867       63.35672248153398
C           55.14779797810221       56.20829512480194       64.62721992415467
C           54.08970605309981       56.90431623509365       65.49248047887593
C           52.69142922632012       56.65417491322469       64.93222661007034
C           54.35082629130200       58.41586483005332       65.54888832528813
C           55.48968589913137       58.82843680011305       66.48806658990128
C           55.01984530920173       58.79800829583149       67.94210683357014
C           56.00633186921135       60.23319732510868       66.14685436064015
C           56.86943802495394       60.33464498798397       64.88477289167545
C           58.21529517834360       59.63744209892801       65.08574798968864
C           57.14553545717057       61.79687720978360       64.50079555256220
C           55.94202082702960       62.67356360848206       64.12597541469049
C           55.09101238173351       62.02338507173832       63.03808885704535
C           56.43114049313446       64.04786287052760       63.64070667451694
C           56.91792525528621       64.98276770701223       64.75383125700401
C           55.73996623616571       65.62212058495955       65.48605306127666
C           57.85053881631922       66.07244184737955       64.20290257971047
C           58.88218712441797       66.55637476846364       65.23095498522706
C           59.43678573486365       67.92159035370854       64.82767897872692
C           60.01903725766169       65.53348187674584       65.35380108964790
C           60.84521195066034       65.64248439301318       66.64819827419583
C           62.33805953720488       65.62995973022639       66.31979014149886
C           60.54712059337841       64.49363876728879       67.62063436999627
C           59.15072690062879       64.49709873294275       68.26163344313848
C           59.05595534527315       65.57178943184415       69.34140284911142
C           58.88725973323214       63.09730768549768       68.83188214399075
C           57.57012976421113       62.86718061982958       69.58910586623828
C           57.55653217807039       61.41195465291022       70.05851674802804
C           56.36289759129040       63.20773077047961       68.70413909919590
C           54.98036283635416       62.76554272736632       69.20947242558562
C           53.94227307327782       63.11651848363709       68.14282363334235
C           54.62182622792199       63.42633154403792       70.54526736923013
C           53.37502826247457       62.84701817871160       71.23312470713392
C           52.88097272572654       63.84286404082992       72.28416289325760
C           53.65632735830836       61.47337608160615       71.87099273976310
C           52.60437023481929       60.38791827996003       71.59011546182711
C           51.22074543055971       60.79799777334113       72.08710303564219
C           53.07234103352760       59.08539994804551       72.25668508854149
C           52.19568317870898       57.83906011593375       72.05580618293189
C           52.69165352217941       56.73762731748207       72.99395598437127
C           52.22048834067204       57.38064507964869       70.59367793504806
C           51.39304503613011       56.13064047250894       70.26176987977054
C           51.56424066040506       55.79435822112249       68.78079606814346
C           49.90836747931141       56.24261179946090       70.63708686637048
C           49.13225061611696       57.34314376367541       69.91736704371702
C           47.69357591822212       57.42077741822619       70.41417904986534
H           71.05439134919942       57.16105996288840       51.64584228301795
H           69.55732947143484       56.35775775145650       52.11957512832463
H           69.50782676972383       57.98873766417026       51.45400551542499
H           47.13417484526198       58.17623183811792       69.86521417356975
H           47.19286241890374       56.46348139535586       70.28597411805262
H           47.66377325805286       57.67713535038833       71.47195145707262
H           49.43128909203492       55.28250181288850       70.41912104790366
H           49.82311225230816       56.39981074390517       71.71506084461643
H           51.88001845766873       58.19997217152110       69.96049592368647
H           53.25929504573462       57.17500633831972       70.32108573148075
H           51.16948376882130       58.08399509844242       72.34169781891079
H           52.03443783558892       55.87258162222851       72.96872791844807
H           53.69158881930647       56.41757273691816       72.70922366705842
H           52.72879738954422       57.09834483326598       74.02045770851100
H           54.07835916700236       58.85680806609730       71.89357538127527
H           53.15179178122565       59.27442960056857       73.33158607770297
H           54.61472732627381       61.09791945605143       71.50727472060470
H           53.75414208989407       61.59553479175813       72.95267954743171
H           51.79851304337979       55.28814866578387       70.83464279854046
H           50.97491491796009       54.91968890094887       68.51520424267611
H           51.25325624653827       56.62592044476694       68.15430676906708
H           52.60803096110511       55.58273518082959       68.56391223016585
H           52.55804291802918       60.23961117078024       70.50692459551369
H           51.22563048619435       60.92081464456126       73.16868708319359
H           50.90541673805828       61.73454423884099       71.63465045331836
H           50.47858496728333       60.04535937448104       71.83279200791867
H           52.58903684600512       62.73168541549754       70.48209214817398
H           53.67108702080149       64.05512324196069       73.00267051413481
H           52.58637258108685       64.78079993840177       71.81660142213185
H           52.02482211463319       63.44982240134474       72.82592377578551
H           55.46093139905154       63.34068183787657       71.23805458592344
H           54.45993055430083       64.49272496982414       70.36434052738491
H           54.97917514680456       61.67965447756169       69.33379859675644
H           52.95309927750014       62.76163022371894       68.41875300104400
H           53.88872185095201       64.19489357411291       68.00273944104245
H           54.20620186305866       62.65904758659487       67.19202409482858
H           56.33721004478788       64.28947150257333       68.55364285026589
H           56.52022862815636       62.74855349197353       67.72564095522380
H           57.56117234075309       63.50875174021499       70.47606013134842
H           57.49851920744688       60.73725664250197       69.20675170262803
H           58.46849697907592       61.18875210715489       70.60912149333303
H           56.71680794169702       61.21253909755588       70.71774315361104
H           58.92411492215419       62.38362148555419       68.00310362193274
H           59.71215198547574       62.85168380398545       69.50798051395675
H           58.40652422266756       64.71019367647959       67.49060849722628
H           58.04376902521513       65.64850133193102       69.73077246859310
H           59.72555326590990       65.34097717989029       70.16832559270456
H           59.33327567082407       66.54448602456202       68.94141720173690
H           60.68701251799567       63.55350669334872       67.08007015737610
H           61.28821269475469       64.51378709616387       68.42419507364379
H           60.61850199224175       66.59269273296535       67.14193665150560
H           62.59296130058801       66.45138147025467       65.65298387222596
H           62.93841545776682       65.72576009175283       67.22245563861364
H           62.60050121288266       64.69390425984035       65.83045735151168
H           59.60840583363070       64.52579550930477       65.28148444795744
H           60.67746149079052       65.66684304819152       64.49234201211488
H           58.38701756721841       66.66339000572594       66.20188883766541
H           59.86910545946711       67.87696129119449       63.82998552571743
H           58.65040756336671       68.67380823346764       64.82530630632066
H           60.21210871199001       68.24489389801273       65.51883427324562
H           58.39154406092540       65.69617910933377       63.33121838027149
H           57.24517360563591       66.91764556572532       63.86635834070658
H           57.48013296349909       64.38602513458997       65.47702094729625
H           55.09968980184793       64.86451056607191       65.92919742434593
H           56.08958931466758       66.27609589867420       66.28260986741432
H           55.13985654572455       66.21690745100159       64.79884619825471
H           57.24277560687369       63.88536830178475       62.92886637042936
H           55.62447381300957       64.54748926234384       63.09868664672486
H           55.31166413625031       62.82366505410253       65.00816280518811
H           54.30536184933050       62.70406546526763       62.71595865899127
H           55.70324275309094       61.77410485726332       62.17338035036907
H           54.61874281785321       61.11617012128153       63.40232550518622
H           57.67683415146216       62.26660312941326       65.33271683082103
H           57.83016389500153       61.79108351574601       63.64768698975364
H           56.35694546751093       59.84257682118819       64.05331695397825
H           58.76227001286506       60.08951549947631       65.91062870716830
H           58.08761672936789       58.58079171553514       65.30378004685085
H           58.82574790412222       59.72320783575888       64.18898754655183
H           55.13892994623662       60.88792479438770       66.04402743481680
H           56.59745663009583       60.60096302026533       66.98884923717355
H           56.31271316067674       58.11562001458248       66.38947898053843
H           54.59534620589783       57.83040381019044       68.19669855462162
H           55.84867205281628       58.99002919156417       68.62031700364439
H           54.25800135506557       59.55613314585990       68.11233299334049
H           54.56871406941553       58.75689681250604       64.53462634198773
H           53.44012774897072       58.92539571067771       65.87466197622409
H           54.12678215136769       56.50017691435797       66.50739506348577
H           52.60250609384245       57.07142077401085       63.93080236459987
H           52.47689311075901       55.58957984687294       64.87900832725569
H           51.93937281170874       57.12038626963150       65.56599861022633
H           56.13578537438457       56.60383440535333       64.87024263560238
H           54.94529640728278       56.48538605780968       63.58917326897078
H           54.23240133011948       54.31165167091891       65.12453741018169
H           55.45484247907565       52.97535759868084       63.41756766129237
H           54.57269026074930       54.32053769860347       62.69328578195272
H           56.32092296299589       54.42316216225350       62.91907326826298
H           57.25270290569036       54.58289239721710       65.28621262494241
H           56.36954652996663       53.08412713059926       65.56840176347046
H           56.07712568121396       55.59087284508271       67.26630826102665
H           54.01823719966173       54.20031123549133       67.26259209508632
H           54.97600620698656       52.76616386323348       67.61517684381002
H           54.85341943408495       54.05805192673580       68.80646121009188
H           57.40699028844720       52.92974660219559       67.89581442872442
H           57.22403472265808       54.28829784943996       68.99519196018343
H           58.98248670788929       54.20778038872480       66.51929971754443
H           58.07488733564510       56.49758987689889       66.92317049216031
H           58.65576594287708       56.43036755883505       68.58602654874413
H           59.79980355766580       56.42506474831014       67.23677028042087
H           59.70131469039079       52.82771478019693       68.43280106314592
H           59.54027819741144       54.21530787531411       69.50750106555802
H           61.38550029404222       55.35516909596877       68.34993724329146
H           62.03664967670493       52.54047685844525       69.32531537801859
H           63.14999285419742       53.90952925887851       69.31018812288147
H           61.73769755049770       53.93497611323279       70.36034284819875
H           61.04588923276704       54.12083637847388       66.13382671391754
H           61.79376682153172       52.72020181741833       66.88938908317904
H           63.88539082312078       54.09292641112661       67.22108142491911
H           64.54016221352003       53.91558148525613       64.84768501768713
H           63.51509297643291       52.55887456340724       65.29138783845306
H           62.84007675792609       53.89756793025065       64.36399722939566
H           62.90186965005942       56.32646735936304       67.25764159331834
H           62.23619231418308       56.10028496487744       65.64130742263342
H           64.50528729057908       56.11033770638223       64.69612525797127
H           64.75499955154528       58.52272494377565       64.87551483629021
H           63.04027784730070       58.15493261114497       65.00949522348007
H           63.96684468346081       58.53431495415681       66.45608493124665
H           65.80373801299839       55.28698027824696       66.60519818950324
H           65.32807894443236       56.68404044198782       67.56743484654993
H           66.60316723770269       58.16408978110675       66.02460484121656
H           68.80576553650951       57.50087101456236       66.91477721083695
H           67.55909865405009       57.25171534474811       68.12870655156173
H           68.20437645083236       55.87335925333202       67.23799682192944
H           66.46722541749648       56.58222314957558       64.03517480653522
H           67.63516512110246       55.55627413048234       64.85890957096738
H           69.26296825119640       57.49222192302833       64.78939810929982
H           69.23096805755378       55.56019102301669       63.19608220124010
H           68.23621812275741       56.51285558502460       62.09141723882375
H           69.88435243278975       57.01791989658617       62.47223078554262
H           67.68167429877523       59.34180055478581       64.51051462290543
H           67.06681735710204       58.63238645902916       63.01752167900482
H           69.24818820756404       59.03923646149156       61.92541308262803
H           67.33684698088261       60.63435775570483       61.81466519505214
H           68.00516489892325       61.51222528976164       63.19177905507748
H           68.88349274266331       61.45507096877942       61.66473602616490
H           70.60563326909957       59.03555733143757       64.08561204351700
H           69.91857858805697       60.61669102897262       64.43919417364394
H           70.93369200088432       61.39025541023928       62.20211736943210
H           71.86127365694045       62.01210601656060       64.39671529385687
H           72.74998309062103       60.49138663971510       64.47957140705934
H           73.17364905841791       61.69879845220817       63.26552848572370
H           71.32222229712829       58.95736366769655       61.43860353243593
H           72.66228728793136       58.92386792618413       62.56665762014844
H           72.93775516927282       61.31606942012238       60.97777712948201
H           75.06711508541478       60.28575831577577       60.31809972500355
H           74.77869069396162       60.03141833666883       62.03861473911430
H           74.51476369337779       58.71324809585172       60.89485174689791
H           72.49285224975911       58.79551159681185       59.34572375901875
H           73.24910886380590       60.25760251735943       58.72830091423261
H           70.43257073295155       60.28179778955980       59.86620785062601
H           71.86565543941127       62.15698717244737       57.93799753980984
H           70.22932671577746       62.35414533635827       58.57159152781137
H           71.61354225705148       62.48110310886032       59.65051269002993
H           71.40457673230142       59.78053169040552       57.03769903730564
H           69.77888121872212       60.35281799041193       57.38311393588680
H           70.83790606414659       57.75419039663863       58.54808597687687
H           68.83903034590648       58.81413555608710       59.65303702319861
H           67.99869077459647       58.76297403164989       58.10519571644319
H           68.47272099757024       57.26410014132721       58.90439701874226
H           69.30973455741406       58.29542336945224       55.98293312210626
H           69.37872061177816       56.70503292854988       56.73567626183009
H           71.86654809488367       58.19896412097955       55.81643780216402
H           72.30300984204138       56.48835937191336       57.53671575753533
H           71.38256118505387       55.29938124944939       56.61557021850993
H           72.89533933907843       55.94318454883284       55.97415964718138
H           70.35315364352107       55.96517825595753       54.42236299787579
H           71.89774389059896       56.64564479289887       53.91980588299657
H           69.20268244654376       58.06281579865993       53.88994147372954
H           71.97404495929332       59.09838244674610       53.14038892672818
H           70.46051689750232       59.89118179067791       52.70642291114606
H           70.91511869394145       59.74219348866723       54.39966794334929
H           49.61712754062463       58.30704018841184       70.07925723525793
H           49.12593422403041       57.14516273344761       68.84434995138662
C           70.19672272642819       55.05003655287098       48.84099786749223
C           71.09937001601104       55.77922810753418       47.84781250064228
C           71.93241829068377       56.82962701382134       48.58082684519739
C           70.27689506977678       56.44119799869495       46.73417601278207
C           69.79146926422089       55.46851252992740       45.65128321677418
C           70.90963336553891       55.19315153502114       44.64521955276333
C           68.56456241653719       56.01679943802397       44.90856948029119
C           67.26723221255132       56.05464168148620       45.72349106765079
C           66.83132213411639       54.64787503392504       46.13030147153405
C           66.12191222336654       56.69443662846232       44.92715031210570
C           66.30650086243031       58.14582216935052       44.46355189089792
C           66.80082342370191       59.04705460126998       45.59372460029912
C           64.97167796150821       58.70918974875795       43.95102515697510
C           64.41843060221105       58.06421703868286       42.67632250925804
C           65.18554909440263       58.55475745736663       41.44815307842279
C           62.92533901674552       58.37258488234780       42.49439293541804
C           61.96384502486569       57.75322291509839       43.52208271365394
C           62.16245820470542       56.24363483493321       43.62460055695533
C           60.52891018483371       58.09504523401453       43.09511135148606
C           59.41629366337344       57.76624238067640       44.10015430593434
C           58.06619681960614       57.88435668950476       43.39212405057023
C           59.45852897706178       58.69202683626457       45.32183122410367
C           58.56336105874168       58.23466108580619       46.48908946192012
C           57.73208842909020       59.40879346655856       47.00768266337690
C           59.36296970985926       57.64408955284270       47.65792036458956
C           60.22795750007653       56.41996447025397       47.34386747863361
C           59.37190497134652       55.20715879213479       46.98290600490583
C           61.09470323336457       56.05027877204708       48.55554160325706
C           62.28262294399615       56.97133255860208       48.84997399388462
C           63.40427501074509       56.74028353968153       47.83905188601074
C           62.80503027857836       56.71967139875670       50.27231524384609
C           61.97154171358702       57.37709320874850       51.37860333236869
C           62.26740622849140       58.87479736238885       51.44483575460886
C           62.25891846854414       56.75462831652664       52.75249951131907
C           61.76850719308657       55.31562870074759       52.97336110286918
C           60.26545576871523       55.20618639822581       52.73249894923418
C           62.15251804616932       54.88797182598986       54.39831789033911
C           61.89216645250604       53.42376568957948       54.78245851101089
C           62.12650602420229       53.26409983380690       56.28493202300774
C           62.79372413200166       52.46127744188449       54.00169424527103
C           62.37647191885573       50.98015820895304       54.08746855285298
C           63.56000929668996       50.12530284395420       54.53682711780464
C           61.85348588839376       50.44804976668399       52.74610964888594
C           60.53106098484138       51.06507426802707       52.28118353076200
C           59.37282637267385       50.60960816656471       53.16885448964555
C           60.20307676241466       50.68302078220107       50.83078245488824
C           61.19620391910244       51.13043699653640       49.75193460567908
C           61.59741434885245       52.59531450822656       49.90631307076402
C           60.59628983220270       50.94972074373862       48.35011261453018
C           60.21057686692246       49.52476801996128       47.94068452653591
C           61.41796981585426       48.58794008223569       47.98818925129333
C           59.63684234583808       49.51407895993169       46.51604308844760
C           58.30847221455854       50.25068356579800       46.31107997782285
C           57.18797960445134       49.60307229034896       47.12350852558119
C           57.90789640133325       50.25418919484341       44.82777460985530
C           58.90282380160427       50.90756979346479       43.86263935325126
C           59.20347190131110       52.34862001112576       44.27235489698737
C           58.36997644852060       50.89671935405961       42.42262750048565
C           58.09922382617643       49.52157256377839       41.79866306866918
C           59.24526230485018       48.53895983020610       42.04753948089762
C           57.90711968619443       49.63631993081095       40.27761716980969
C           56.82424569776853       50.59539830538344       39.77259230339273
C           55.43830119892692       50.18728824928051       40.25802738036303
C           56.89611787956679       50.73040785135012       38.24040461452307
C           56.54097804952395       49.47603163179277       37.41859372541044
C           57.50886451966623       49.34097205262236       36.24248484588394
C           55.09292907636159       49.52720694557298       36.90956675188369
C           54.52448764289538       48.17095666202357       36.46558924035818
C           53.35370456369054       48.38610029663182       35.50784884433286
C           54.08170834423840       47.34707123346018       37.68019604203223
C           53.83122413128630       45.85663095059117       37.37880245044905
C           52.36597864129786       45.48964904255272       37.61607200526599
C           54.73071154189847       44.96247164832125       38.24081471534548
C           56.22387207367430       45.03864597580854       37.88312706385258
C           56.53744281561448       44.12496369653648       36.70137458567068
C           57.04615130585732       44.66491949977211       39.12077450802643
C           58.57680927323890       44.69608089074749       38.98861665593769
C           59.15899329601255       44.36139942726906       40.36081373237937
C           59.05816365563214       46.06042192186872       38.47944089809759
C           60.56460549801460       46.34692890117639       38.57822880978296
C           60.82215020483530       47.75446490505143       38.04070700059702
C           61.38582785740173       45.30501615488188       37.81133571171688
C           62.91000292315407       45.50741977240082       37.81918644885031
C           63.54373122428711       44.45972925225264       36.90264596584514
C           63.47253004405989       45.41762050331268       39.24306327756284
C           64.98812857291593       45.61737634723392       39.38103818836030
C           65.40018105461883       45.38796677580343       40.83599917142671
C           65.48567833711007       46.97909718406251       38.87383231708043
C           64.94080831095394       48.20006337876390       39.61243122465412
C           65.52366374962320       49.48819135715420       39.04218819610644
H           70.79215936380928       54.55888254495956       49.60796397388390
H           69.52631935565742       55.75468490097250       49.32830540956260
H           69.59553447240960       54.29375379682643       48.34271418838117
H           66.60904805478965       49.48682314844716       39.12424125776428
H           65.26378748939842       49.59451174032823       37.99050600422443
H           65.14230327160773       50.35459905113544       39.57753663308146
H           66.57716777329057       46.98792074198347       38.95284026413184
H           65.24488509401414       47.07418192994643       37.81249815613671
H           62.97385602045609       46.15491752967995       39.87226779331820
H           63.22785223046712       44.42919563869243       39.64340110671544
H           63.13165180876849       46.49465556947237       37.40614276598745
H           64.60673085416153       44.64235338566711       36.76885210611563
H           63.41501341552321       43.46181231905886       37.31787948584799
H           63.07573768384756       44.48245695004812       35.92025726496531
H           61.17726412841981       44.31280384934060       38.21608231932942
H           61.04743898845302       45.30850024575704       36.77082763219922
H           58.75976572690922       46.17250205858899       37.43470774965800
H           58.53998054071057       46.83422254841163       39.05132072658633
H           65.49368606859512       44.85348357636881       38.77932895193516
H           64.84579419363166       46.04018205018921       41.50621055484801
H           65.20285852714971       44.35761226646810       41.12248497282769