3536
 energy: -3716.268245481047 gnorm: 0.000714825596 xtb: 6.6.1 (8d0f1dd)
C           60.34797868965541       46.38184517287811       48.77850907987577
C           60.83376957024872       44.98882109814951       48.39075351336429
C           62.19300644291827       44.71313935597809       49.03258906032384
C           60.94157077291566       44.82454198333029       46.87054388514808
C           59.64157539627369       45.01750572827337       46.07833023471004
C           58.56283692006680       44.04042101313404       46.53701753326192
C           59.93756509835264       44.83061198833528       44.58315914341983
C           58.88184335495680       45.41018004727935       43.62913184025775
C           59.02747708367082       44.75158940758818       42.25728520287581
C           59.03858621126314       46.93207509568599       43.52935068346583
C           57.88336818945695       47.68185637038042       42.84909137339037
C           58.35624939120846       49.08912837996974       42.48187532394418
C           56.65034311548413       47.74120087695757       43.76062390518340
C           55.36535760590760       48.26789398030682       43.09730926397289
C           54.59486681878581       49.15199522233545       44.07969998973977
C           54.42753677686319       47.14768005725013       42.62665924038780
C           54.95299503692169       46.21654927373434       41.53077534412942
C           55.27029982935294       46.98078115448367       40.24524248671494
C           53.92479889032902       45.12104846110931       41.20663188184022
C           53.72317815883714       44.05826037025586       42.30493499243991
C           53.76578485088957       42.66332298802251       41.67894212287787
C           52.39992474458086       44.26949440959032       43.05405963180809
C           52.27329729318480       43.50694916033978       44.38212645259284
C           50.80715005645665       43.50827893279170       44.81939710307908
C           53.16881490549792       44.11016876586426       45.48039546236961
C           54.05331454789152       43.12167729683305       46.25759617834162
C           55.11422892634216       42.49248920341800       45.35473181007362
C           53.27367924884637       42.01320330673006       46.97292803916520
C           52.41186057310758       42.45154286359202       48.16694873127980
C           53.28331914081470       42.88875504054671       49.34126225757217
C           51.50748398444323       41.26810227935390       48.54499726582544
C           50.58006418553521       41.45702571681608       49.75186254535268
C           49.96374864261905       40.10622701619869       50.11803033686380
C           49.48361060518985       42.49157635488501       49.47614921650079
C           48.70728258366097       42.91778333559952       50.73807403187403
C           47.23146887954676       42.53416204595552       50.61936193556692
C           48.82215622133435       44.42355887111426       51.01107828885326
C           50.23683688011668       44.94245189135922       51.29839279738672
C           50.85171048757043       44.28255845506551       52.53061120329007
C           50.20037036679918       46.46515686782161       51.50467036035297
C           51.45972058099733       47.20009175832508       51.01735194398307
C           51.62292934889161       48.51173848525556       51.78359546109558
C           51.33886041189621       47.44359916755837       49.50776917266506
C           52.54739501990957       48.08032200272621       48.80751678262654
C           52.10492581030053       48.61103082544987       47.44357631600588
C           53.69150745634305       47.06974611612011       48.66848871325032
C           55.01937633962492       47.63907080735031       48.14675046833980
C           55.94958639491347       46.48849698390575       47.76703626951104
C           55.66492110956443       48.55481007290670       49.19217278305273
C           57.00250948735562       49.20131935149151       48.80236179340940
C           57.49419701954519       50.04563537868277       49.97666650785579
C           56.84974266257813       50.04536087996190       47.53243682845883
C           58.10286456842267       50.79623366398023       47.06466741260719
C           57.70558970478502       51.77689792898536       45.96117298576028
C           59.18686554720569       49.83516378052607       46.56405528558686
C           60.58913562675129       50.45412138150589       46.51234895294382
C           61.49261451731586       49.62519258921971       45.59936931152620
C           61.19886538562277       50.55898863952661       47.91953513186809
C           61.97267160426846       51.85710956699410       48.18962505705377
C           62.87223110314736       51.65842933468862       49.40690663800834
C           60.99316321640320       53.01613702659145       48.41422347180684
C           61.62228803496976       54.41220401649490       48.49441629481166
C           60.60880523603208       55.39816929240663       49.07520143947683
C           62.11323299837771       54.90349569168998       47.12600446210127
C           63.31568245212101       55.85546079476266       47.21972621534971
C           63.42275864487830       56.68846864200894       45.94528515526514
C           64.59167040296124       55.04111238380401       47.46163115604540
C           65.88864733864534       55.82540368169049       47.70378561046121
C           67.04827722203963       54.83193244242435       47.73655902247854
C           65.81554503653810       56.63648569180288       49.00333155741654
C           67.07003299426033       57.44326193420461       49.37213120772689
C           66.88328031761473       58.04220023423106       50.76453909869011
C           67.34475129524490       58.53030527992819       48.32845226884330
C           68.65895479135597       59.31094829422822       48.52576142347862
C           68.37800308716390       60.75123908906031       48.94824905024747
C           69.50384997334419       59.28597177238878       47.24290554198608
C           70.24367926487815       57.94976328862952       47.06167698231022
C           71.59216538112290       58.01093937597500       47.77491788962314
C           70.40363437694029       57.61573856152937       45.57389384605241
C           71.13408083855713       56.30317093294553       45.24582004980521
C           71.32093939404747       56.21290076480335       43.73079243307178
C           70.36134830914538       55.09082098549577       45.77549321749356
C           71.10183529113031       53.74798233326228       45.71744165843156
C           70.12958651266618       52.62955512936622       46.09453516748835
C           72.33440221304721       53.72118611437250       46.64228834224565
C           73.67349629364523       53.67313860029175       45.89834739455253
C           73.87566341364672       52.29946431632217       45.25830174346894
C           74.84939984239276       53.96282963941896       46.84166889935718
C           74.98489338880890       55.41709340328072       47.29630744423702
C           75.37188584545729       56.37026775032281       46.17152935816598
H           60.97136277771668       47.14469102763827       48.31586868241101
H           59.31946553807537       46.53714326567295       48.46421270952725
H           60.39437724238519       46.51111749519676       49.85635254987203
H           75.52384375374892       57.37333731871275       46.56451365456215
H           76.29492216581875       56.04407707744998       45.69678743738532
H           74.59547459730734       56.41998607247034       45.41243122599033
H           74.74896278955713       53.32498299786560       47.72411672864033
H           75.77803800665124       53.67790195517168       46.34021850860536
H           72.31347665509183       54.59954343292968       47.28818113455723
H           72.28392992651210       52.84628488799029       47.29490929661267
H           71.42419856749690       53.57298274273725       44.68694888379885
H           69.28230750498817       52.61208579555635       45.41175345296993
H           70.62062197300754       51.65969339406713       46.05042833734481
H           69.75140006702142       52.77981085843223       47.10398578507738
H           70.09005997082967       55.26733789895049       46.81678481727895
H           69.43193586881971       55.00413785126992       45.20702960713601
H           69.40932045170436       57.57624276990683       45.12091950282738
H           70.94579930117636       58.43712441363512       45.09660911031222
H           73.66587933762580       54.42420701157157       45.10288053129992
H           73.04350303155549       52.04315856638889       44.60740521067302
H           74.78786190742089       52.28118070590004       44.66526824842451
H           73.95375172139534       51.53434765298100       46.02869008358397
H           72.12411527044418       56.32972298760360       45.70792126977020
H           71.89988259894844       55.33501214708410       43.45499834102475
H           70.35570725603625       56.15359405015450       43.23129148949429
H           71.84374143019934       57.09085671627344       43.35592413197268
H           69.63711841561192       57.17110330425528       47.53175692235614
H           71.47075288233741       58.41463665988380       48.77800908908053
H           72.04089422428454       57.02513437350500       47.86249149569254
H           72.28253295378879       58.65419299685094       47.23203445471482
H           68.84934001761660       59.47274355446962       46.38944458816215
H           70.23851636593241       60.09482656679344       47.26731079350083
H           69.24372578276002       58.83620167556762       49.32123930949759
H           67.82533892928181       61.26948552267856       48.16676268609556
H           67.78740174649448       60.77473759702302       49.86095626097231
H           69.30734833069205       61.29071824386735       49.12652089816824
H           67.37054401869378       58.05834557933346       47.34626687974012
H           66.50712858996694       59.23049057882591       48.32999105827335
H           67.92998714577816       56.76873852131318       49.41139070092635
H           66.03804082762741       58.72484636174914       50.77437039631783
H           66.69800759735259       57.25740590511163       51.49403139359362
H           67.76901609087167       58.58803112610458       51.07964756733650
H           64.97819708540976       57.33497730298186       48.93933860115925
H           65.60058028420785       55.94386428946781       49.82168925168016
H           66.04668701528406       56.50300363174306       46.86021398979988
H           66.95801853338649       54.17368879217437       48.59699942962618
H           67.04985760521127       54.21671945730894       46.83954790057825
H           68.00334449787093       55.34466232244991       47.78833971279271
H           64.43542510175843       54.38031912068904       48.31703560079191
H           64.74308167295912       54.40120975356912       46.58764632258125
H           63.15127494752497       56.53497671786819       48.06225096146213
H           64.22565875642329       57.41743015282344       46.02205614832843
H           63.61413032587832       56.04545432936737       45.08842211308856
H           62.49701761260820       57.23115654442234       45.76339183325629
H           62.39503450558212       54.05554861844328       46.49868867148803
H           61.28638268407997       55.41098971688652       46.62259555263488
H           62.47403024616069       54.37373123143063       49.17871348484667
H           61.01753553026708       56.40596768868275       49.09807328528437
H           59.69990116375106       55.41115727840464       48.47662672016408
H           60.33947223355587       55.11874427109795       50.09159329639377
H           60.25198448351276       53.02448551586916       47.61239741405221
H           60.45862197684444       52.82337212055990       49.34899688676431
H           62.60570514469856       52.07500405228963       47.32167453684517
H           62.27250420477191       51.43947226467537       50.28652349487339
H           63.55377782511279       50.82690134766514       49.24425234328981
H           63.46698784604302       52.54442189509719       49.60980228395074
H           60.41373433351336       50.47187757783369       48.67221064294306
H           61.87044273925763       49.70965439312739       48.06713990578779
H           60.51508116942451       51.45619750696792       46.07876575112716
H           61.53258873430666       48.59067761093601       45.93756923070549
H           61.12415022772955       49.63238364077800       44.57528548521243
H           62.50486270538455       50.02261951486933       45.59822322961585
H           59.23016070240495       48.95407326788161       47.20627155291760
H           58.90842930776672       49.49393427975801       45.56424171371351
H           58.49837428260947       51.37810585435829       47.89989924501332
H           58.56917062574212       52.31505579087425       45.57721745649636
H           57.24125601708521       51.24922137138952       45.12892998795292
H           56.99462142878650       52.50637960479058       46.34285159151992
H           56.52201668956916       49.40171447261397       46.71375717727240
H           56.05884486352601       50.77936127799677       47.71017991557520
H           57.73449425061570       48.40714434151758       48.63031241137086
H           58.53251833026974       50.33615711974051       49.84882048794180
H           56.89097464244667       50.94395021087045       50.07782521436752
H           57.42362393902297       49.48065139949198       50.90308215471003
H           54.96776837121508       49.35961303076513       49.43512385961209
H           55.82122245838350       47.97029847519494       50.10381353981323
H           54.81314106213387       48.21641338215012       47.24271948235689
H           56.22597049815231       45.91527342495110       48.65022392361422
H           55.45822670363883       45.82064243494239       47.06235009496395
H           56.85624327551881       46.85594037054669       47.29421580159728
H           53.87749604777774       46.60332042731201       49.63886717704381
H           53.36093798907660       46.27961580589693       47.98775874961808
H           52.88654878116979       48.93154194483552       49.40277572818479
H           51.26392063760804       49.29175753494595       47.55526477546638
H           52.90627008571101       49.15518653962567       46.95166511028036
H           51.79598072950211       47.79262655948929       46.79583473658406
H           51.11649229484986       46.49392152298788       49.01346014441678
H           50.47666127128760       48.09695715047855       49.35387017439476
H           52.33378914143260       46.57137935147920       51.21924503382638
H           52.55276492185804       49.00994295904070       51.52279456185296
H           50.79752030922084       49.18480349984684       51.56073911697765
H           51.63843922846241       48.32454085158820       52.85577156618988
H           49.33819550209930       46.88587600473321       50.98403728578703
H           50.05596777954436       46.65541907842805       52.56975139665445
H           50.87049214474203       44.72048677723897       50.43413727656939
H           50.19455828486932       44.40170867020823       53.38999434731436
H           51.02326270821800       43.22010539931942       52.37841776796331
H           51.80773985974898       44.74532097669793       52.76476034680226
H           48.42667513514687       44.95972403758667       50.14325322612081
H           48.18651808550693       44.67220541501637       51.86571368411227
H           49.11447025024030       42.38537546075903       51.60280540246552
H           46.68984363485258       42.79256245036879       51.52743346171054
H           46.76331905965900       43.05859651335025       49.78871907770160
H           47.12282673963156       41.46454059654585       50.45307503450739
H           49.93293705127779       43.37143810551977       49.01663092503981
H           48.79213358294662       42.07064921272438       48.74216676851838
H           51.17780074255555       41.79413002257152       50.60288223123693
H           49.38738912211988       39.71308532075118       49.28227655453119
H           50.74003921904007       39.38465642187270       50.36548169566962
H           49.30262222654341       40.19733747425084       50.97613916723211
H           50.89097154300416       41.00887418449987       47.67892465103556
H           52.15431624130882       40.40933127588612       48.74761519924535
H           51.78826137330299       43.29717495117329       47.86233729139207
H           53.98523026813518       43.65922746597532       49.03336735143768
H           52.67799076401240       43.29919835399821       50.14437640488446
H           53.84636739653313       42.04254565943361       49.72903558274282
H           52.63613393857334       41.50776636618558       46.24457676448189
H           53.99289902775580       41.27356364635513       47.33522956831553
H           54.58752875059596       43.70695425735924       47.01412489082151
H           55.67520818428742       43.25965755820075       44.82538535061857
H           55.81557256680074       41.91027552213743       45.94750506352555
H           54.66627658826469       41.83062807104022       44.61837930934357
H           53.83475882145949       44.85327071903313       45.03537463029705
H           52.53858725795499       44.64703242907095       46.19261452408770
H           52.56518697582031       42.46832519503830       44.20937859606709
H           50.68158485783598       42.97935912442857       45.76046532665237
H           50.45099069629291       44.52887675024161       44.94769310382740
H           50.18147029479691       43.02347542152643       44.07206784516337
H           52.25946205173148       45.33323608902391       43.25631356659055
H           51.58739199068171       43.95535384769042       42.39260724722871
H           54.55044146127747       44.13135077282116       43.01610069174396
H           54.73128987588672       42.48566075517772       41.20942738092965
H           53.60942907160864       41.88740380483252       42.42399585901481
H           52.99030326001882       42.56453518662052       40.92114692918481
H           52.96797298506209       45.59340367260936       40.97535742030489
H           54.25957146980037       44.61861829171760       40.29610560399376
H           55.86751288883122       45.72882222289741       41.88473735097283
H           56.01430618301748       47.75492640608085       40.40992438098650
H           55.65510615654611       46.30363443747268       39.48461460639401
H           54.36957460963123       47.44765091407820       39.85399488481308
H           54.16602225838468       46.54491884931070       43.49872279446130
H           53.50492336812634       47.60824970484844       42.26005574991329
H           55.62813807750361       48.88816151842922       42.23747493316473
H           55.20170935552524       49.99669081069200       44.39802730794520
H           53.69003442707290       49.54186541883730       43.61865622474551
H           54.30978172179684       48.57733111038036       44.95867126851442
H           56.45225123435808       46.74844588315442       44.16851775625081
H           56.90178192270555       48.38470390754402       44.60724216770733
H           57.62341119111770       47.16372535343601       41.92320607050763
H           57.55920101792420       49.66582525936031       42.01871487100387
H           58.68832759435616       49.62549519102141       43.36866441649524
H           59.18926344181024       49.04161588030971       41.78217309183162
H           59.16650876894361       47.34284474260804       44.53262177434446
H           59.96054314508685       47.13653350477612       42.97739531132030
H           57.88595870506278       45.17383194830176       44.01561018774405
H           60.02432928951920       44.92782338220935       41.85650565815334
H           58.87522870664380       43.67645831775572       42.33119845651728
H           58.30297001506810       45.14469969888487       41.54842392501696
H           60.89617991115374       45.29796944953710       44.34639362518156
H           60.04501341485646       43.76019167060090       44.38927485989375
H           59.28008508161683       46.03752167541764       46.23755710762547
H           58.93748534950306       43.01879949080567       46.50665838697324
H           58.23903128752704       44.26071489294441       47.54988606475374
H           57.68957895050174       44.10087783366036       45.89407163389895
H           61.68190603286069       45.54124560522877       46.50313358621360
H           61.32798054779689       43.82365242660203       46.65503747226303
H           60.12205840026299       44.25312416380174       48.77848670710749
H           62.91967801362095       45.45538602711238       48.71027466087331
H           62.11900165309812       44.75186400711631       50.11728126307482
H           62.56379916471347       43.72953289545216       48.75016837597484
H           74.05331200758245       55.75809275708146       47.75161459083537
H           75.75720093591994       55.45894187672853       48.06945209998970
C           38.19178489315876       52.40042306728386       47.50678635072620
C           38.88217666202848       52.86605722550891       46.22446374241678
C           39.03950388980439       51.68894370389417       45.26503702283711
C           40.22640091236320       53.51046446714127       46.58147548383553
C           41.06686145796994       54.05895460877164       45.41840205509972
C           42.35057270566374       54.65689815717719       45.99300361620449
C           40.27021163040823       55.09400245522392       44.61630549395530
C           41.00967136756280       55.80917629830606       43.47478921810503
C           40.03919364199263       56.80033622718670       42.83102436855731
C           41.54808210374054       54.79589800420717       42.45683971999407
C           42.13667305787207       55.36556591298450       41.15572939193640
C           42.61221078799002       54.19870319611185       40.28841640831405
C           43.27620954996495       56.34597454262220       41.45143997030290
C           44.02265517191346       56.91530455123376       40.23711402825266
C           45.14032098669900       57.83361291603819       40.72721906250987
C           43.11570880374460       57.61833635471242       39.21380390933400
C           42.39592114803474       58.89807441499953       39.68729567187070
C           40.93283584452179       58.86182001494730       39.24323981634834
C           43.09586671034005       60.14744754329993       39.13096958622842
C           42.65824863840552       61.48426093437566       39.74996962302069
C           43.05318553736264       62.62967668779274       38.81741347273009
C           43.28865987307599       61.68022407557640       41.13404244875179
C           42.58425579199455       62.70079097707730       42.04209866684810
C           43.50987112752244       63.05127753317182       43.20563365559198
C           41.24338413774105       62.12878808294838       42.52363509370068
C           40.47424535345741       62.93978596295584       43.57554217777255
C           39.24434714534962       62.13386500527837       43.99901508067205
C           40.07214814329399       64.34326330585905       43.08726213200157
C           40.40228915819330       65.45750735269105       44.08980733172864
C           39.59905961942825       65.31284023230366       45.38067285286826
C           40.15057525732364       66.83958289418841       43.46971301314782
C           40.90629118000367       67.98056593698752       44.17730783866152
C           39.97276997147438       69.16291303104309       44.44163474188004
C           42.10965263720519       68.46573558319034       43.35758607131962
C           43.20259426704729       67.42058387926720       43.10418788383526
C           43.98067464873054       67.12005638910691       44.38538009156288
C           44.18459124078406       67.90291212386539       42.02606588546001
C           43.62063418836141       68.02838038302427       40.60638708037270
C           43.07714729983914       66.69181289902266       40.09758554654984
C           44.69025676054705       68.53257474419735       39.62465061174729
C           45.29609458628047       69.91401645646319       39.90980471271418
C           44.21419617139858       70.98622056184394       40.03570826067410
C           46.26899413879083       70.29811873471495       38.78141744405072
C           47.66022795033136       69.64878478228633       38.87144686403022
C           48.49716383149858       70.36929879295077       39.92657167306291
C           48.35834588107791       69.68031067819592       37.49800358928589
C           49.19967479572296       68.45300216279441       37.10654237769926
C           48.35930328757777       67.17402340633110       37.11950617572366
C           50.47045240244763       68.23842543777319       37.93859199505520
C           51.53121535974604       69.34465194496919       37.86348186424025
C           51.96995843401407       69.59952092737659       36.42059116157450
C           52.76915083676614       68.95994710323878       38.69192557278474
C           52.60993333183834       69.01549412707787       40.21565133183997
C           52.47066121709525       70.46067133541879       40.69770806521042
C           53.82686660332475       68.39561160755545       40.91956271804955
C           54.01545395255722       66.88008828781518       40.78651644256889
C           52.85107662496692       66.11179982210025       41.40994716405083
C           55.30954232009676       66.43438503403881       41.48544500749301
C           56.62202241269348       67.01160171780451       40.94389637691527
C           56.80367039317635       66.68038225664739       39.46209796083833
C           57.82286013181360       66.45885835935928       41.72667351006810
C           57.90016617088983       66.82647537595987       43.21372120969156
C           58.02370189639168       68.33760229126531       43.40760948487298
C           59.10249993730353       66.13392599032449       43.87434160823054
C           58.97240866438707       64.61765932049298       44.05765789187269
C           57.89203537411893       64.28287622338406       45.08377748764518
C           60.29925836484620       63.99499802220390       44.51711335756536
C           61.46351269597874       64.06890404826672       43.52226950513386
C           61.07495432965394       63.49692384798081       42.15842090671854
C           62.68216199417519       63.29272427372181       44.04094769034212
C           63.29145470973936       63.74874134917381       45.37294288416376
C           63.57842166111421       65.24999328338158       45.37636887168343
C           64.60663832606703       62.99799028891308       45.62758986243940
C           64.46813690026450       61.49864991968089       45.92209254207024
C           64.20152572195319       61.27424487686991       47.40883164692082
C           65.73693838127691       60.74218402451079       45.50790422116840
C           65.92891699631193       60.56268479490898       43.99605407630489
C           64.88062378142310       59.61214362117351       43.42460978604284
C           67.34525612595846       60.03716982226949       43.72254197364066
C           67.81253167332544       60.15938766745155       42.26648570391192
C           69.09478589968059       59.34796542549414       42.07885644377566
C           68.03052156631571       61.62933711503060       41.85574683128537
C           67.21347523676879       62.06351348486987       40.63287221712465
C           67.71798645057643       61.36624721025265       39.37052191726470
C           67.28293919570591       63.58578544346319       40.43896075990353
C           66.36832495592381       64.39422124726340       41.36787680766606
C           64.92342938414140       64.34173086408451       40.87318723601220
C           66.81890372743503       65.85963799927524       41.44920744770359
C           68.08435357139668       66.10563261720617       42.27279764141607
C           67.87538896997184       65.89096568436202       43.76692302747225
H           38.79987033081607       51.65561429250520       48.01690772829531
H           38.03446421590460       53.23784416450347       48.18288137263141
H           37.22418435676653       51.95636484545754       47.28264022657418
H           67.06056354301622       66.51258415253403       44.13234429134394
H           67.64038690072843       64.85255440098673       43.98395150321164
H           68.77732259464860       66.15295313200198       44.31518603811647
H           66.97917574709730       66.22778774739218       40.43221689352402
H           66.01049863348133       66.45230750949885       41.88557896085942
H           68.31993697299085       63.89753803682352       40.57920424945681
H           67.01272392201878       63.82740660067348       39.40757821051081
H           66.17055784779777       61.77226716109086       40.79075414490090
H           67.69353386690415       60.28566033809098       39.48463339089689
H           67.10031626188514       61.63051264095714       38.51407708688858
H           68.74257152575670       61.66564654382322       39.15642338682492
H           67.77754252190374       62.27907205919308       42.69456100605723
H           69.08870657078052       61.79493630512244       41.63942828320463
H           68.05866862826495       60.57856926722199       44.35025112893229
H           67.38291388025718       58.98583141075859       44.01913427451351
H           66.40139398835177       63.96236451046958       42.37215424301306
H           64.57586801625436       63.31526932284557       40.78829541923524
H           64.26428360512621       64.87182456284235       41.55776540160291