3536
 energy: -3716.242226923091 gnorm: 0.000959309607 xtb: 6.6.1 (8d0f1dd)
C           60.34855463453770       46.38126217844695       48.77778974121638
C           60.83429964237442       44.98775872171513       48.38972184787145
C           62.19387976382442       44.71241738667501       49.03146413860907
C           60.94217117593397       44.82410020289270       46.86942474077088
C           59.64158999458315       45.01772005710974       46.07793313493966
C           58.56350432314363       44.03953325843974       46.53676669444661
C           59.93762077023529       44.83062711979807       44.58266824830030
C           58.88108605834400       45.40994226756816       43.62923283487400
C           59.02727828799284       44.75196214519881       42.25745596306274
C           59.03862857994126       46.93206745919399       43.52961141466258
C           57.88352113681455       47.68163757769675       42.84857950107384
C           58.35600706345982       49.08912612553092       42.48120218100297
C           56.65036669608622       47.74079861163664       43.76042671823980
C           55.36533314895881       48.26757482465433       43.09666196739477
C           54.59421355248397       49.15156925180706       44.07935686175882
C           54.42744858172544       47.14703548425951       42.62635752429480
C           54.95363218055430       46.21603729628570       41.53031635206287
C           55.27024550512701       46.98075249698640       40.24481932622586
C           53.92468826867574       45.12098569892858       41.20690988140827
C           53.72389779370632       44.05829216714777       42.30562316321576
C           53.76581649521378       42.66375380813569       41.67933807549301
C           52.40002724942881       44.26948050241913       43.05414275011784
C           52.27311394938712       43.50649021768143       44.38202834763253
C           50.80698493910162       43.50867089599137       44.81948649913465
C           53.16860309654348       44.11017133677556       45.48037564437259
C           54.05351589636608       43.12148929897226       46.25770692157933
C           55.11391457651655       42.49218755605394       45.35422296174667
C           53.27340363525754       42.01296223215152       46.97266725231227
C           52.41159873960940       42.45179140605104       48.16663731864790
C           53.28362937750970       42.88797551474259       49.34157133213765
C           51.50732310914601       41.26830383098787       48.54472640187314
C           50.58052275666267       41.45756677190854       49.75193657641874
C           49.96319914218028       40.10711364245820       50.11665229081635
C           49.48396098619187       42.49215500441117       49.47553913704564
C           48.70753224760753       42.91740303723564       50.73782783987509
C           47.23173076910910       42.53439449005341       50.61885122853198
C           48.82190351334625       44.42337015017772       51.01080702238447
C           50.23710162968680       44.94127541155488       51.29792977510832
C           50.85176527582058       44.28177592649768       52.53072037172256
C           50.20034893113865       46.46427473368065       51.50415667007942
C           51.46019980310692       47.19897560647572       51.01716313854645
C           51.62337215342293       48.51097283347340       51.78364569789248
C           51.33893315498094       47.44325614824989       49.50752206631752
C           52.54782083005108       48.08060425361828       48.80789975839544
C           52.10529551453930       48.61117650701819       47.44348822795362
C           53.69166719930180       47.06940368937568       48.66888797800424
C           55.01924300218543       47.63894923141778       48.14616567521475
C           55.94944844207416       46.48803762457929       47.76721544903869
C           55.66475032727415       48.55438016543561       49.19236120732098
C           57.00282513758391       49.20018018101480       48.80212453959757
C           57.49440427903502       50.04479378333570       49.97666079520303
C           56.84997868219609       50.04485343126177       47.53231476205823
C           58.10344175711693       50.79646011081758       47.06532924242992
C           57.70560967188673       51.77685000614582       45.96140102938813
C           59.18718384865743       49.83509418231090       46.56392727506923
C           60.58938544418309       50.45471866730704       46.51059537873176
C           61.49275218242629       49.62486409639381       45.59815263313389
C           61.19867696312634       50.55931996031311       47.91841737993894
C           61.97263640628884       51.85754889773837       48.18866478164855
C           62.87188803383390       51.65830789133478       49.40644382801860
C           60.99283275081568       53.01657270151223       48.41374303750185
C           61.62287592557652       54.41254340207045       48.49444450848850
C           60.60906128736393       55.39857556522105       49.07549549475042
C           62.11337074689290       54.90382280545267       47.12571123066685
C           63.31553032140592       55.85646985511892       47.22014469537112
C           63.42276409753835       56.68858682315037       45.94499568320281
C           64.59157855161540       55.04145334462235       47.46174486760714
C           65.88874948262689       55.82599030272144       47.70341591306918
C           67.04819509676767       54.83203261839098       47.73638567123749
C           65.81532405892300       56.63689526263426       49.00335570926835
C           67.07061847667161       57.44315943738594       49.37177288624615
C           66.88378128166511       58.04229862216001       50.76435247722901
C           67.34500251090437       58.53041669479634       48.32793100498763
C           68.65954765253595       59.31105248721401       48.52558015135988
C           68.37841360242564       60.75153902974055       48.94779684069667
C           69.50391017513051       59.28564621243147       47.24233695248810
C           70.24352955671972       57.94899048215733       47.06179329448739
C           71.59211868596148       58.01085697518072       47.77493037592228
C           70.40363457137890       57.61555855052365       45.57366878926729
C           71.13474898911603       56.30323153781848       45.24576004603725
C           71.32120898643399       56.21273013925363       43.73088558232192
C           70.36163133176319       55.09072508561121       45.77538908763494
C           71.10257468137370       53.74792334300977       45.71733348119082
C           70.13005713568566       52.62935507738483       46.09413572281375
C           72.33486808736590       53.72143395317453       46.64250815737321
C           73.67398430250029       53.67374146078034       45.89823941974428
C           73.87569969345965       52.29997142579402       45.25890582357022
C           74.84924593243979       53.96323679986266       46.84220011582633
C           74.98398255241378       55.41756410428255       47.29681235073802
C           75.37074056957265       56.36998958033714       46.17147168324705
H           60.97198639846184       47.14433490686683       48.31560762898550
H           59.32004918677355       46.53663816217609       48.46343230964101
H           60.39442301617206       46.51067903769128       49.85579814271863
H           75.52270345702148       57.37321072088133       46.56405977762803
H           76.29389849494819       56.04333567491587       45.69763219235442
H           74.59492476245656       56.41969040713838       45.41177729860737
H           74.74890357256508       53.32484783645773       47.72413081213863
H           75.77733484699338       53.67924221480977       46.34010405472298
H           72.31290287170813       54.59951053787044       47.28866177274972
H           72.28379911034078       52.84624379052627       47.29447548861206
H           71.42430491891805       53.57328294530579       44.68735234883835
H           69.28293822512634       52.61260432111501       45.41122382328113
H           70.62109385402515       51.65967881961694       46.04977442252726
H           69.75152435430252       52.77917660308918       47.10386388418230
H           70.08969852250998       55.26684349950265       46.81676451147926
H           69.43244068136224       55.00381275938312       45.20666976586634
H           69.40924573201430       57.57588978495984       45.12101072143837
H           70.94595293361768       58.43687044452344       45.09783699556881
H           73.66588892185740       54.42483603839427       45.10346502702387
H           73.04367019495230       52.04348781767852       44.60790064497586
H           74.78783724411807       52.28203157946592       44.66626533013579
H           73.95357349563399       51.53522188278546       46.02957594039584
H           72.12375376999582       56.32997379171368       45.70866850257703
H           71.90053066669471       55.33509222739043       43.45624197965650
H           70.35599151018870       56.15257685276962       43.23151033881530
H           71.84336118800073       57.09101681537626       43.35677445833245
H           69.63642060736819       57.17071891722793       47.53179414536609
H           71.47015748808190       58.41521120378037       48.77760486884532
H           72.03985402395179       57.02484779220065       47.86272306450103
H           72.28143996526985       58.65358306329243       47.23094147061731
H           68.84897522570346       59.47241286412670       46.38946049349374
H           70.23839153763336       60.09366246452414       47.26787338878401
H           69.24287839385229       58.83572818363487       49.32086701157260
H           67.82496732073388       61.26877062748136       48.16633706501251
H           67.78850381549613       60.77500461893167       49.86117570644391
H           69.30802298736803       61.28993938767154       49.12487908295122
H           67.37054854581844       58.05797045523702       47.34617153833868
H           66.50686576625574       59.22984881921562       48.33024853250622
H           67.92939427177011       56.76812556560041       49.41096020316804
H           66.03802976080233       58.72438088095651       50.77361504412055
H           66.69860988617862       57.25717976655001       51.49340269575599
H           67.76930865934999       58.58833378939510       51.07863261902659
H           64.97824639379040       57.33549102843079       48.93941438689480
H           65.60017258898243       55.94409375114997       49.82131455461447
H           66.04612367369791       56.50324112877711       46.86035329662174
H           66.95746391784570       54.17445612198813       48.59727235534266
H           67.04850531605700       54.21697326497581       46.83960540478387
H           68.00269273238540       55.34529708196077       47.78774245966668
H           64.43567237504608       54.38085488482864       48.31715373321244
H           64.74266237162769       54.40256278525759       46.58755249767447
H           63.15062181325174       56.53544597217591       48.06239007531715
H           64.22573752495458       57.41701206533214       46.02264737233460
H           63.61400790156304       56.04439665907018       45.08933851083903
H           62.49697334755689       57.23103235489339       45.76344972454177
H           62.39551804007755       54.05592190375055       46.49930556998378
H           61.28635511433731       55.41121123030967       46.62335812979756
H           62.47416524630857       54.37356713146264       49.17855584734686
H           61.01855497531106       56.40596549230641       49.09941047603911
H           59.70055661333395       55.41163097579523       48.47646095934918
H           60.33937705922283       55.11793275456837       50.09143822156858
H           60.25213220189211       53.02573970692909       47.61196745244789
H           60.45863934840269       52.82393729130323       49.34854763858178
H           62.60528952243137       52.07583422397555       47.32179932882531
H           62.27173209540952       51.43907722172273       50.28575039703003
H           63.55305438681167       50.82678154536976       49.24313589770980
H           63.46635581495677       52.54434418620109       49.60953857208460
H           60.41378859624874       50.47232351635722       48.67129456764910
H           61.87073165128272       49.71087799339288       48.06611299355075
H           60.51465484409495       51.45662327893840       46.07823449430809
H           61.53089679161057       48.59103666315676       45.93744420593610
H           61.12415111277856       49.63345837073427       44.57459064117679
H           62.50460332010309       50.02249832139456       45.59877771964236
H           59.23099121835753       48.95501760379560       47.20696445272016
H           58.90776221709830       49.49480589065605       45.56476348244279
H           58.49800249734136       51.37802627031760       47.90086995110389
H           58.56947316465813       52.31415593260704       45.57761008203606
H           57.24078838029043       51.24810897689387       45.13060359070947
H           56.99525261531668       52.50654065989901       46.34392386991840
H           56.52310386706618       49.40132672301678       46.71383029306713
H           56.05948506857055       50.77876115007496       47.71062849640258
H           57.73425855222131       48.40641348812106       48.63077788874798
H           58.53268695594824       50.33508666735748       49.84864677478900
H           56.89119755465232       50.94319802426907       50.07732756284732
H           57.42347364823387       49.47953040117689       50.90277533679107
H           54.96841177419218       49.35964605889659       49.43529364106041
H           55.82168588574380       47.96986239497313       50.10351475003554
H           54.81277386583463       48.21703902061155       47.24329751600166
H           56.22502248520380       45.91638401744208       48.65140889984293
H           55.45702116639787       45.82090596204026       47.06325494382882
H           56.85563262167700       46.85609709156754       47.29444288936695
H           53.87841812539842       46.60403383763576       49.63922361076527
H           53.36100253418137       46.28056899683330       47.98786589017620
H           52.88659151861209       48.93155452576231       49.40320725711503
H           51.26404409986454       49.29147743844553       47.55598500272252
H           52.90657165412032       49.15660018427042       46.95279692553233
H           51.79738077815387       47.79253939372224       46.79597335074617
H           51.11738894520394       46.49415536952785       49.01333360227785
H           50.47745070725058       48.09727381704999       49.35411650894258
H           52.33416316553053       46.57140912675695       51.21902520142475
H           52.55344329297698       49.00896119387269       51.52306844653555
H           50.79810123060176       49.18425053620970       51.56062419497329
H           51.63864796911253       48.32382265232297       52.85582317214031
H           49.33904895430999       46.88564397394605       50.98309836768154
H           50.05650764367898       46.65524471923258       52.56909612990151
H           50.87087113958574       44.72032211102237       50.43420794996272
H           50.19418505403368       44.40149442174836       53.38954569459253
H           51.02266767186551       43.21983342510551       52.37755739876846
H           51.80775000935429       44.74494089474577       52.76449944335033
H           48.42795772356065       44.96035688383547       50.14310924991413
H           48.18753788804605       44.67280382847404       51.86577470721942
H           49.11525277611820       42.38603270279472       51.60229674072941
H           46.69077160685445       42.79250079270110       51.52716588585682
H           46.76444835159206       43.05911971407751       49.78822658590229
H           47.12478125142366       41.46503133705702       50.45247859909666
H           49.93208666137982       43.37244588593823       49.01554071539526
H           48.79244407764327       42.07046638739290       48.74272358944326
H           51.17827821938616       41.79445048375811       50.60281479737033
H           49.38740485727816       39.71560180823602       49.28017538105468
H           50.73938307250433       39.38569442738829       50.36385360008273
H           49.30200010355032       40.19831064867461       50.97451036993356
H           50.89064076388907       41.01014047743274       47.67920613261062
H           52.15443257202753       40.41051597396904       48.74775022649652
H           51.78912858155761       43.29817019088254       47.86257203135641
H           53.98675424290817       43.65809823797989       49.03480300601819
H           52.67905337635207       43.29908064122147       50.14502314661187
H           53.84554853003460       42.04117536778375       49.72932151524286
H           52.63553167581957       41.50908278740440       46.24437528461451
H           53.99257639002300       41.27398594946499       47.33513594353580
H           54.58734485172182       43.70707004075800       47.01427083510344
H           55.67485289336596       43.25949216315492       44.82514862975494
H           55.81489432003396       41.91005153775867       45.94724900864557
H           54.66496267357135       41.83105713464366       44.61839789179982
H           53.83437861712117       44.85361870091072       45.03566293943809
H           52.53812684066084       44.64706446202394       46.19243951549286
H           52.56551970586179       42.46877768192270       44.20950702226026
H           50.68111612631742       42.97953221469508       45.76027128313189
H           50.45190988011583       44.52974427786679       44.94847741480787
H           50.18171207226684       43.02496098229803       44.07161451328765
H           52.25857249047510       45.33317928475531       43.25656228703768
H           51.58847019257738       43.95423335366676       42.39280995501404
H           54.55086812458098       44.13215500711169       43.01660556860211
H           54.73113995299172       42.48678141736894       41.20972321184387
H           53.60957489704099       41.88820628702897       42.42440550384480
H           52.98994768711218       42.56630628558942       40.92216077250322
H           52.96802633736692       45.59370443032780       40.97638150421979
H           54.25961730281865       44.61873090981571       40.29702608980109
H           55.86741547380576       45.72902962334646       41.88515661443259
H           56.01378640270866       47.75550404011289       40.40909309560315
H           55.65489646318861       46.30334684073618       39.48499032739598
H           54.36882919176491       47.44681065145414       39.85444443686728
H           54.16617092168828       46.54532610596303       43.49901559910494
H           53.50522665359191       47.60837162888772       42.26027166183404
H           55.62795702687353       48.88810729693886       42.23762945027411
H           55.19985430397934       49.99720458172003       44.39824769603945
H           53.68921105527335       49.54096335771767       43.61825039252429
H           54.30907358063938       48.57643049590954       44.95807877337153
H           56.45188572806251       46.74830661157272       44.16783263641251
H           56.90094150792834       48.38439875720795       44.60727343516977
H           57.62302506374920       47.16351804291017       41.92382516120953
H           57.55854322939604       49.66527346393649       42.01815525768989
H           58.68761495523439       49.62579938471070       43.36810922382732
H           59.18880122514930       49.04092810973639       41.78199323683027
H           59.16620405932333       47.34339627460282       44.53275755384583
H           59.95986717446037       47.13641824714404       42.97740706647951
H           57.88582073641887       45.17433510237775       44.01665353955713
H           60.02419051528999       44.92869975073103       41.85796973829802
H           58.87478017537539       43.67725351846217       42.33227387519674
H           58.30284945290401       45.14533840017166       41.54900321991597
H           60.89563865595876       45.29847836466151       44.34632715090672
H           60.04390500767867       43.76064562964699       44.38964902714997
H           59.28008756971906       46.03748216788333       46.23801482356391
H           58.93977645984366       43.01894738433404       46.50650787536937
H           58.23927807239267       44.26020710873587       47.54958157828516
H           57.69063526778523       44.09981226704284       45.89352482030425
H           61.68216108548493       45.54111518366044       46.50321469073965
H           61.32737746897227       43.82341367494229       46.65473284476026
H           60.12219638179479       44.25362261760566       48.77805835692642
H           62.91966485945753       45.45544736024102       48.70918791736838
H           62.11956578488212       44.75118347181339       50.11625376036211
H           62.56436639864413       43.72931852572031       48.74846391444716
H           74.05255345358195       55.75857653557829       47.75247070161197
H           75.75651027013703       55.45961098224630       48.06931165777320
C           38.19231619726543       52.40047177870989       47.50629403751049
C           38.88177149774613       52.86613967006397       46.22369544556032
C           39.03993998257142       51.68920670805353       45.26455318320764
C           40.22592539789745       53.51054950574414       46.58116526460088
C           41.06588502021267       54.05876590576739       45.41749552120005
C           42.35009305779778       54.65641924019360       45.99244429190156
C           40.26939469048447       55.09445047228423       44.61598467083284
C           41.00973804054038       55.81023962857606       43.47518080832907
C           40.03939166448787       56.80149860385386       42.83132394579282
C           41.54771676935191       54.79634479720864       42.45723957785012
C           42.13595641092625       55.36600692806072       41.15597012288656
C           42.61193379238242       54.19945550739664       40.28882223628980
C           43.27585203315849       56.34621131490729       41.45202742955419
C           44.02182800076076       56.91505315773598       40.23692384353465
C           45.14033663598095       57.83309064858484       40.72662377270090
C           43.11487145330085       57.61887952491163       39.21447458947709
C           42.39544606556393       58.89849808837722       39.68888227639892
C           40.93278717790401       58.86226025546478       39.24405211619819
C           43.09546827941846       60.14755419232939       39.13143621215895
C           42.65758273721841       61.48438851240577       39.74999305872662
C           43.05319181506639       62.62968529994415       38.81790166443790
C           43.28840085408925       61.67977871984964       41.13414499911448
C           42.58368167939420       62.70044917288571       42.04197067341089
C           43.50963791717039       63.05138506804931       43.20554263004379
C           41.24314002399704       62.12817843500319       42.52400137822246
C           40.47489340598062       62.93985942968315       43.57623836997752
C           39.24492909287262       62.13373708751508       43.99904525588721
C           40.07255342517826       64.34303866450523       43.08693386447094
C           40.40339096606426       65.45755062755192       44.08904217140434
C           39.59938154542040       65.31331056066408       45.37946615246697
C           40.15119363821285       66.83950842106761       43.46882289593846
C           40.90691503494834       67.98027510274316       44.17671911683354
C           39.97334286269090       69.16237911312290       44.44012689775520
C           42.10976432926281       68.46613186107052       43.35667708960543
C           43.20239634369538       67.42080974984172       43.10310196543798
C           43.98053058272083       67.12043604902568       44.38464653458991
C           44.18486422592107       67.90338297840965       42.02527440082224
C           43.62082927483096       68.02870241648620       40.60546818513175
C           43.07713078503475       66.69212758963073       40.09695649407389
C           44.69088013412898       68.53253920923342       39.62407885944002
C           45.29681893917540       69.91389106728089       39.91018657466578
C           44.21474151815795       70.98567838526435       40.03571999255819
C           46.26927372792215       70.29799246969925       38.78146189719891
C           47.66034220434479       69.64841068705354       38.87163660070892
C           48.49735777662968       70.36957000394970       39.92652856560643
C           48.35855633137922       69.68048871454324       37.49825529414119
C           49.19985964002258       68.45343907555150       37.10681091384877
C           48.35963460268243       67.17435595078337       37.11993711112396
C           50.47067121502740       68.23835261588690       37.93892319915422
C           51.53102516574815       69.34520568417548       37.86406221288647
C           51.96952157673616       69.59948655300011       36.42134338698294
C           52.76923808162945       68.96006057928099       38.69189171514700
C           52.60953003949457       69.01525432579284       40.21565457419834
C           52.47070302377192       70.46044841085444       40.69783963619972
C           53.82707843792704       68.39593134421789       40.91946091079013
C           54.01597390053278       66.88044202506909       40.78596836197806
C           52.85148641408296       66.11161606952822       41.40926118641333
C           55.30973451371630       66.43421013793785       41.48546334852205
C           56.62205829810162       67.01223717126028       40.94390673659354
C           56.80330175489333       66.68062314852300       39.46241818407761
C           57.82270230526011       66.45876582060039       41.72652990361991
C           57.89924632894087       66.82634817975634       43.21382830943036
C           58.02320476214041       68.33733952964458       43.40758439996169
C           59.10267240217220       66.13471103529959       43.87389754887023
C           58.97314177337041       64.61837475790391       44.05653706185625
C           57.89275751908067       64.28297000335878       45.08307735951399
C           60.29993377139027       63.99559221795911       44.51668722364765
C           61.46401300142374       64.07017217890689       43.52135561266551
C           61.07502865362696       63.49790214459279       42.15772908744342
C           62.68247253060139       63.29344483769519       44.04005633547770
C           63.29129876582843       63.74974692187423       45.37253074780923
C           63.57872544639639       65.25095845513366       45.37514612162910
C           64.60682229853104       62.99886397789561       45.62651724805813
C           64.46802461246679       61.49934654695817       45.92082838590441
C           64.20154359421656       61.27523577548622       47.40806399475709
C           65.73753348405241       60.74326780195257       45.50731752660813
C           65.92914180471874       60.56324080468142       43.99530586707378
C           64.88038311408144       59.61232948460388       43.42460874896599
C           67.34552764120160       60.03711690714378       43.72229262543381
C           67.81246054204010       60.15912083032616       42.26587060442338
C           69.09477541507006       59.34765284482956       42.07895801563671
C           68.03067112443010       61.62918665987196       41.85556358601571
C           67.21285300210432       62.06289420232793       40.63284187856687
C           67.71786320005961       61.36558402442260       39.37081221162237
C           67.28294460087392       63.58505191379932       40.43884811765149
C           66.36846939957324       64.39326278446632       41.36805215881562
C           64.92359866058773       64.34123067726412       40.87267299169612
C           66.81920294798968       65.85858659241354       41.44871487994665
C           68.08424795920450       66.10388135742079       42.27272256994483
C           67.87443137562478       65.88992043557347       43.76687949486890
H           38.80088510620026       51.65591785456953       48.01630914456115
H           38.03429564160196       53.23782342266919       48.18235838533183
H           37.22541311087297       51.95597752418733       47.28151604814361
H           67.05931997776966       66.51164843558436       44.13168914560593
H           67.63967592909262       64.85151682714596       43.98496056391598
H           68.77598404561624       66.15241859665329       44.31545276376702
H           66.98012539402255       66.22528653169437       40.43176782177565
H           66.01065357248443       66.45133744239799       41.88438459118176
H           68.31961680937007       63.89630126210947       40.57952201422452
H           67.01199660686106       63.82617031408815       39.40800241360402
H           66.17010941303326       61.77173970813386       40.79140036759825
H           67.69369350583904       60.28501138846142       39.48480937496851
H           67.10016299260855       61.63014320657031       38.51474121976558
H           68.74217724851364       61.66563354696522       39.15776634912396
H           67.77892093733472       62.27860556567229       42.69488570102704
H           69.08835145750376       61.79327756005105       41.63813012094853
H           68.05800277545497       60.57906337154343       44.34994227992895
H           67.38207777304980       58.98607592381403       44.01964012196365
H           66.40136157544713       63.96145589247170       42.37227885205054
H           64.57525899815336       63.31497950674679       40.78734474003034
H           64.26424233486119       64.87202357799399       41.55656934255811