      -----------------------------------------------------------      
     |                   =====================                   |     
     |                           x T B                           |     
     |                   =====================                   |     
     |                         S. Grimme                         |     
     |          Mulliken Center for Theoretical Chemistry        |     
     |                    University of Bonn                     |     
      -----------------------------------------------------------      

   * xtb version 6.6.1 (8d0f1dd) compiled by 'stahn@M-Bot' on 2023-08-01

   xtb is free software: you can redistribute it and/or modify it under
   the terms of the GNU Lesser General Public License as published by
   the Free Software Foundation, either version 3 of the License, or
   (at your option) any later version.
   
   xtb is distributed in the hope that it will be useful,
   but WITHOUT ANY WARRANTY; without even the implied warranty of
   MERCHANTABILITY or FITNESS FOR A PARTICULAR PURPOSE.  See the
   GNU Lesser General Public License for more details.
   
   Cite this work as:
   * C. Bannwarth, E. Caldeweyher, S. Ehlert, A. Hansen, P. Pracht,
     J. Seibert, S. Spicher, S. Grimme, WIREs Comput. Mol. Sci., 2020, 11,
     e01493. DOI: 10.1002/wcms.1493
   
   for GFN2-xTB:
   * C. Bannwarth, S. Ehlert and S. Grimme., J. Chem. Theory Comput., 2019,
     15, 1652-1671. DOI: 10.1021/acs.jctc.8b01176
   for GFN1-xTB:
   * S. Grimme, C. Bannwarth, P. Shushkov, J. Chem. Theory Comput., 2017,
     13, 1989-2009. DOI: 10.1021/acs.jctc.7b00118
   for GFN0-xTB:
   * P. Pracht, E. Caldeweyher, S. Ehlert, S. Grimme, ChemRxiv, 2019, preprint.
     DOI: 10.26434/chemrxiv.8326202.v1
   for GFN-FF:
   * S. Spicher and S. Grimme, Angew. Chem. Int. Ed., 2020, 59, 15665-15673.
     DOI: 10.1002/anie.202004239
   
   for ALPB and GBSA implicit solvation:
   * S. Ehlert, M. Stahn, S. Spicher, S. Grimme, J. Chem. Theory Comput.,
     2021, 17, 4250-4261. DOI: 10.1021/acs.jctc.1c00471
   
   for DFT-D4:
   * E. Caldeweyher, C. Bannwarth and S. Grimme, J. Chem. Phys., 2017,
     147, 034112. DOI: 10.1063/1.4993215
   * E. Caldeweyher, S. Ehlert, A. Hansen, H. Neugebauer, S. Spicher,
     C. Bannwarth and S. Grimme, J. Chem. Phys., 2019, 150, 154122.
     DOI: 10.1063/1.5090222
   * E. Caldeweyher, J.-M. Mewes, S. Ehlert and S. Grimme, Phys. Chem. Chem. Phys.
     2020, 22, 8499-8512. DOI: 10.1039/D0CP00502A
   
   for sTDA-xTB:
   * S. Grimme and C. Bannwarth, J. Chem. Phys., 2016, 145, 054103.
     DOI: 10.1063/1.4959605
   
   in the mass-spec context:
   * V. Asgeirsson, C. Bauer and S. Grimme, Chem. Sci., 2017, 8, 4879.
     DOI: 10.1039/c7sc00601b
   * J. Koopman and S. Grimme, ACS Omega 2019, 4, 12, 15120-15133.
     DOI: 10.1021/acsomega.9b02011
   
   for metadynamics refer to:
   * S. Grimme, J. Chem. Theory Comput., 2019, 155, 2847-2862
     DOI: 10.1021/acs.jctc.9b00143
   
   for SPH calculations refer to:
   * S. Spicher and S. Grimme, J. Chem. Theory Comput., 2021, 17, 1701-1714
     DOI: 10.1021/acs.jctc.0c01306
   
   with help from (in alphabetical order)
   P. Atkinson, C. Bannwarth, F. Bohle, G. Brandenburg, E. Caldeweyher
   M. Checinski, S. Dohm, S. Ehlert, S. Ehrlich, I. Gerasimov, C. Hölzer
   A. Katbashev, J. Koopman, C. Lavigne, S. Lehtola, F. März, M. Müller,
   F. Musil, H. Neugebauer, J. Pisarek, C. Plett, P. Pracht, F. Pultar,
   J. Seibert, P. Shushkov, S. Spicher, M. Stahn, M. Steiner, T. Strunk,
   J. Stückrath, T. Rose, and J. Unsleber
   
 * started run on 2024/06/23 at 16:39:19.415     

           -------------------------------------------------
          |                Calculation Setup                |
           -------------------------------------------------

          program call               : /home/abt-grimme/AK-bin/xtb input.xyz --input input.inp --opt --gbsa water
          hostname                   : boar043.thch.uni-bonn.de
          coordinate file            : input.xyz
          omp threads                :                     8

   ID    Z sym.   atoms
    1    6 C      1-90, 273-362, 545-634, 817-906, 1089-1178, 1361-1450,
                  1633-1722, 1905-1994, 2177-2266, 2449-2538, 2721-2810,
                  2993-3082, 3265-3354
    2    1 H      91-272, 363-544, 635-816, 907-1088, 1179-1360, 1451-1632,
                  1723-1904, 1995-2176, 2267-2448, 2539-2720, 2811-2992,
                  3083-3264, 3355-3536

molecular fragmentation (1/2 indicates fragments):
111111111111111111111111111111111111111111111111111111111111111111111111
111111111111111111111111111111111111111111111111111111111111111111111111
111111111111111111111111111111111111111111111111111111111111111111111111
111111111111111111111111111111111111111111111111111111112222222222222222
222222222222222222222222222222222222222222222222222222222222222222222222
222222222222222222222222222222222222222222222222222222222222222222222222
222222222222222222222222222222222222222222222222222222222222222222222222
222222222222222222222222222222222222222222222222222222222222222222222222
222222222222222222222222222222222222222222222222222222222222222222222222
222222222222222222222222222222222222222222222222222222222222222222222222
222222222222222222222222222222222222222222222222222222222222222222222222
222222222222222222222222222222222222222222222222222222222222222222222222
222222222222222222222222222222222222222222222222222222222222222222222222
222222222222222222222222222222222222222222222222222222222222222222222222
222222222222222222222222222222222222222222222222222222222222222222222222
222222222222222222222222222222222222222222222222222222222222222222222222
222222222222222222222222222222222222222222222222222222222222222222222222
222222222222222222222222222222222222222222222222222222222222222222222222
222222222222222222222222222222222222222222222222222222222222222222222222
222222222222222222222222222222222222222222222222222222222222222222222222
222222222222222222222222222222222222222222222222222222222222222222222222
222222222222222222222222222222222222222222222222222222222222222222222222
222222222222222222222222222222222222222222222222222222222222222222222222
222222222222222222222222222222222222222222222222222222222222222222222222
222222222222222222222222222222222222222222222222222222222222222222222222
222222222222222222222222222222222222222222222222222222222222222222222222
222222222222222222222222222222222222222222222222222222222222222222222222
222222222222222222222222222222222222222222222222222222222222222222222222
222222222222222222222222222222222222222222222222222222222222222222222222
222222222222222222222222222222222222222222222222222222222222222222222222
222222222222222222222222222222222222222222222222222222222222222222222222
222222222222222222222222222222222222222222222222222222222222222222222222
222222222222222222222222222222222222222222222222222222222222222222222222
222222222222222222222222222222222222222222222222222222222222222222222222
222222222222222222222222222222222222222222222222222222222222222222222222
222222222222222222222222222222222222222222222222222222222222222222222222
222222222222222222222222222222222222222222222222222222222222222222222222
222222222222222222222222222222222222222222222222222222222222222222222222
222222222222222222222222222222222222222222222222222222222222222222222222
222222222222222222222222222222222222222222222222222222222222222222222222
222222222222222222222222222222222222222222222222222222222222222222222222
222222222222222222222222222222222222222222222222222222222222222222222222
222222222222222222222222222222222222222222222222222222222222222222222222
222222222222222222222222222222222222222222222222222222222222222222222222
222222222222222222222222222222222222222222222222222222222222222222222222
222222222222222222222222222222222222222222222222222222222222222222222222
222222222222222222222222222222222222222222222222222222222222222222222222
222222222222222222222222222222222222222222222222222222222222222222222222
222222222222222222222222222222222222222222222222222222222222222222222222
22222222
# atoms in fragment 1/2:   272  3264
 fragment masses (1/2) :     1264.41    15172.94
CMA distance (Bohr)    :  29.433
constraining FC (au)   :  0.0500

           -------------------------------------------------
          |                 G F N 2 - x T B                 |
           -------------------------------------------------

        Reference                      10.1021/acs.jctc.8b01176
      * Hamiltonian:
        H0-scaling (s, p, d)           1.850000    2.230000    2.230000
        zeta-weighting                 0.500000
      * Dispersion:
        s8                             2.700000
        a1                             0.520000
        a2                             5.000000
        s9                             5.000000
      * Repulsion:
        kExp                           1.500000    1.000000
        rExp                           1.000000
      * Coulomb:
        alpha                          2.000000
        third order                    shell-resolved
        anisotropic                    true
        a3                             3.000000
        a5                             4.000000
        cn-shift                       1.200000
        cn-exp                         4.000000
        max-rad                        5.000000

      * Solvation model:               GBSA
        Solvent                        water
        Parameter file                 internal GFN2-xTB/GBSA
        Dielectric constant                8.0200E+01
        Reference state                gsolv [1 M gas/solution]
        Free energy shift                  1.8574E-03 Eh       1.1656E+00 kcal/mol
        Temperature                        2.9815E+02 K
        Density                            1.0000E+00 kg/L
        Solvent mass                       1.8000E+01 g/mol
        Interaction kernel             Still
        Born radius scaling (c1)           1.5524E+00
        Born radii integrator          GBOBC
        Born offset                        2.4628E-02 a0       4.6540E-02 AA
        H-bond correction              true
        Ion screening                  false
        Surface tension                    1.0000E-05 Eh       1.5569E+01 dyn/cm
        Grid points                               230 per atom
q/qsh data taken from xtbrestart
CAMM data taken from xtbrestart

          ...................................................
          :                      SETUP                      :
          :.................................................:
          :  # basis functions                7046          :
          :  # atomic orbitals                7046          :
          :  # shells                         4706          :
          :  # electrons                      7046          :
          :  max. iterations                   250          :
          :  Hamiltonian                  GFN2-xTB          :
          :  restarted?                       true          :
          :  GBSA solvation                   true          :
          :  PC potential                    false          :
          :  electronic temp.          300.0000000     K    :
          :  accuracy                    1.0000000          :
          :  -> integral cutoff          0.2500000E+02      :
          :  -> integral neglect         0.1000000E-07      :
          :  -> SCF convergence          0.1000000E-05 Eh   :
          :  -> wf. convergence          0.1000000E-03 e    :
          :  Broyden damping             0.4000000          :
          ...................................................

 iter      E             dE          RMSdq      gap      omega  full diag
   1  -3764.2580357 -0.376426E+04  0.658E-05   10.60       0.0  T
   2  -3764.2580357 -0.368800E-08  0.517E-05   10.60      32.5  T
   3  -3764.2580357 -0.408818E-08  0.327E-05   10.60      51.4  T

   *** convergence criteria satisfied after 3 iterations ***

         #    Occupation            Energy/Eh            Energy/eV
      -------------------------------------------------------------
         1        2.0000           -0.6185166             -16.8307
       ...           ...                  ...                  ...
      3517        2.0000           -0.3767242             -10.2512
      3518        2.0000           -0.3764386             -10.2434
      3519        2.0000           -0.3761586             -10.2358
      3520        2.0000           -0.3760651             -10.2333
      3521        2.0000           -0.3758355             -10.2270
      3522        2.0000           -0.3751720             -10.2089
      3523        2.0000           -0.3746328             -10.1943 (HOMO)
      3524                          0.0150822               0.4104 (LUMO)
      3525                          0.0166927               0.4542
      3526                          0.0170970               0.4652
      3527                          0.0176951               0.4815
      3528                          0.0178113               0.4847
       ...                                ...                  ...
      7046                          0.3686170              10.0306
      -------------------------------------------------------------
                  HL-Gap            0.3897151 Eh           10.6047 eV
             Fermi-level           -0.1797753 Eh           -4.8919 eV

 SCC (total)                   0 d,  0 h,  8 min, 44.066 sec
 SCC setup                      ...        0 min,  2.000 sec (  0.382%)
 Dispersion                     ...        0 min,  4.147 sec (  0.791%)
 classical contributions        ...        0 min,  0.160 sec (  0.031%)
 integral evaluation            ...        0 min,  7.370 sec (  1.406%)
 iterations                     ...        3 min, 45.830 sec ( 43.092%)
 molecular gradient             ...        4 min, 33.776 sec ( 52.241%)
 printout                       ...        0 min, 10.784 sec (  2.058%)

         :::::::::::::::::::::::::::::::::::::::::::::::::::::
         ::                     SUMMARY                     ::
         :::::::::::::::::::::::::::::::::::::::::::::::::::::
         :: total energy           -3715.371272081525 Eh    ::
         :: total w/o Gsasa/hb     -3715.258564785882 Eh    ::
         :: gradient norm              0.665002557455 Eh/a0 ::
         :: HOMO-LUMO gap             10.604686670859 eV    ::
         ::.................................................::
         :: SCC energy             -3764.258035733918 Eh    ::
         :: -> isotropic ES            0.437195677980 Eh    ::
         :: -> anisotropic ES          1.500508390337 Eh    ::
         :: -> anisotropic XC          2.300508462455 Eh    ::
         :: -> dispersion             -4.705990055019 Eh    ::
         :: -> Gsolv                  -0.047873507921 Eh    ::
         ::    -> Gelec                0.064833787722 Eh    ::
         ::    -> Gsasa               -0.107870392179 Eh    ::
         ::    -> Ghb                 -0.006694346591 Eh    ::
         ::    -> Gshift               0.001857443127 Eh    ::
         :: repulsion energy          48.152672115679 Eh    ::
         :: add. restraining           0.000000000000 Eh    ::
         :: total charge              -0.000000000009 e     ::
         :::::::::::::::::::::::::::::::::::::::::::::::::::::

      ----------------------------------------------------------- 
     |              Fast Inertial Relaxation Engine              |
      ----------------------------------------------------------- 

          ...................................................
          :                      SETUP                      :
          :.................................................:
          :   energy convergence        0.5000000E-05 Eh    :
          :   grad. convergence         0.1000000E-02 Eh/a0 :
          :   optimization log               true           :
          :   writing optlog all                1     steps :
          :   Hessian reset                    20     steps :
          :   time step scaling                 5     steps :
          :   maximium step len.        1.0000000     a0    :
          :   initial time step         0.2500000     fs    :
          :   maximum time step         1.2500000     fs    :
          :   power reset thr           0.0000000     au    :
          :   alpha parameter           0.1000000           :
          :   BFGS update                   false           :
          :   preconditioning               false           :
          ...................................................

........................................................................
.............................. CYCLE    1 ..............................
........................................................................

 iter      E             dE          RMSdq      gap      omega  full diag
   1  -3764.5199951 -0.376452E+04  0.762E-03   10.61       0.0  T
   2  -3764.5200385 -0.434025E-04  0.414E-03   10.61       1.0  T
   3  -3764.5200391 -0.674656E-06  0.179E-03   10.61       1.0  T
   4  -3764.5200397 -0.539609E-06  0.443E-04   10.61       3.8  T
   5  -3764.5200400 -0.273777E-06  0.175E-04   10.61       9.6  T
     SCC iter.                  ...        6 min,  1.316 sec
     gradient                   ...        4 min, 32.518 sec
 * total energy  : -3715.4215605 Eh     change    :  -0.5028843E-01 Eh
   gradient norm :     0.6329028 Eh/a0  converged?    E=F G=F D=F
   time step     :     0.2500000 fs     power     :   0.2602632E-05
   step length   :     0.0779369 a0     speed     :   0.7540812E-02

........................................................................
.............................. CYCLE    2 ..............................
........................................................................

 iter      E             dE          RMSdq      gap      omega  full diag
   1  -3764.9065259 -0.376491E+04  0.112E-02   10.62       0.0  T
   2  -3764.9066194 -0.935241E-04  0.608E-03   10.62       1.0  T
   3  -3764.9066209 -0.150015E-05  0.262E-03   10.62       1.0  T
   4  -3764.9066221 -0.116234E-05  0.657E-04   10.62       2.6  T
   5  -3764.9066227 -0.596924E-06  0.268E-04   10.62       6.3  T
   6  -3764.9066227 -0.425739E-07  0.121E-04   10.62      13.9  T
     SCC iter.                  ...        7 min, 15.782 sec
     gradient                   ...        4 min, 38.129 sec
 * total energy  : -3715.4914094 Eh     change    :  -0.6984890E-01 Eh
   gradient norm :     0.5868145 Eh/a0  converged?    E=F G=F D=F
   time step     :     0.2500000 fs     power     :   0.3563148E-05
   step length   :     0.1148619 a0     speed     :   0.1111351E-01

........................................................................
.............................. CYCLE    3 ..............................
........................................................................

 iter      E             dE          RMSdq      gap      omega  full diag
   1  -3765.4077622 -0.376541E+04  0.144E-02   10.64       0.0  T
   2  -3765.4079154 -0.153234E-03  0.784E-03   10.63       1.0  T
   3  -3765.4079179 -0.248754E-05  0.335E-03   10.63       1.0  T
   4  -3765.4079198 -0.188742E-05  0.844E-04   10.63       2.0  T
   5  -3765.4079208 -0.983472E-06  0.348E-04   10.63       4.8  T
   6  -3765.4079209 -0.689110E-07  0.152E-04   10.63      11.0  T
     SCC iter.                  ...        7 min, 24.413 sec
     gradient                   ...        4 min, 32.379 sec
 * total energy  : -3715.5742471 Eh     change    :  -0.8283765E-01 Eh
   gradient norm :     0.5286984 Eh/a0  converged?    E=F G=F D=F
   time step     :     0.2500000 fs     power     :   0.4155414E-05
   step length   :     0.1491202 a0     speed     :   0.1442818E-01

........................................................................
.............................. CYCLE    4 ..............................
........................................................................

 iter      E             dE          RMSdq      gap      omega  full diag
   1  -3766.0110265 -0.376601E+04  0.173E-02   10.65       0.0  T
   2  -3766.0112400 -0.213501E-03  0.935E-03   10.64       1.0  T
   3  -3766.0112436 -0.357387E-05  0.395E-03   10.64       1.0  T
   4  -3766.0112462 -0.258224E-05  0.996E-04   10.64       1.7  T
   5  -3766.0112476 -0.135738E-05  0.421E-04   10.64       4.0  T
   6  -3766.0112477 -0.983014E-07  0.180E-04   10.64       9.4  T
   7  -3766.0112477 -0.464024E-07  0.118E-04   10.64      14.3  T
     SCC iter.                  ...        8 min, 39.708 sec
     gradient                   ...        4 min, 32.793 sec
 * total energy  : -3715.6625314 Eh     change    :  -0.8828432E-01 Eh
   gradient norm :     0.4622067 Eh/a0  converged?    E=F G=F D=F
   time step     :     0.2500000 fs     power     :   0.4339601E-05
   step length   :     0.1798623 a0     speed     :   0.1740264E-01

........................................................................
.............................. CYCLE    5 ..............................
........................................................................

 iter      E             dE          RMSdq      gap      omega  full diag
   1  -3766.7009004 -0.376670E+04  0.196E-02   10.65       0.0  T
   2  -3766.7011644 -0.264021E-03  0.106E-02   10.65       1.0  T
   3  -3766.7011690 -0.459420E-05  0.438E-03   10.65       1.0  T
   4  -3766.7011720 -0.304071E-05  0.109E-03   10.65       1.5  T
   5  -3766.7011736 -0.161092E-05  0.473E-04   10.65       3.6  T
   6  -3766.7011737 -0.102761E-06  0.186E-04   10.65       9.1  T
   7  -3766.7011738 -0.464388E-07  0.120E-04   10.65      14.0  T
     SCC iter.                  ...        8 min, 37.041 sec
     gradient                   ...        4 min, 33.909 sec
 * total energy  : -3715.7487067 Eh     change    :  -0.8617528E-01 Eh
   gradient norm :     0.3927692 Eh/a0  converged?    E=F G=F D=F
   time step     :     0.2500000 fs     power     :   0.4130249E-05
   step length   :     0.2063633 a0     speed     :   0.1996676E-01

........................................................................
.............................. CYCLE    6 ..............................
........................................................................

 iter      E             dE          RMSdq      gap      omega  full diag
   1  -3767.5424359 -0.376754E+04  0.236E-02   10.66       0.0  T
   2  -3767.5427983 -0.362352E-03  0.127E-02   10.66       1.0  T
   3  -3767.5428053 -0.697561E-05  0.512E-03   10.66       1.0  T
   4  -3767.5428092 -0.395523E-05  0.126E-03   10.66       1.3  T
   5  -3767.5428113 -0.206209E-05  0.580E-04   10.66       2.9  T
   6  -3767.5428114 -0.140697E-06  0.211E-04   10.66       8.0  T
   7  -3767.5428115 -0.581658E-07  0.139E-04   10.66      12.1  T
     SCC iter.                  ...        8 min, 33.313 sec
     gradient                   ...        4 min, 35.238 sec
 * total energy  : -3715.8337241 Eh     change    :  -0.8501746E-01 Eh
   gradient norm :     0.3214995 Eh/a0  converged?    E=F G=F D=F
   time step     :     0.2750000 fs     power     :   0.3520924E-05
   step length   :     0.2532245 a0     speed     :   0.2227349E-01

........................................................................
.............................. CYCLE    7 ..............................
........................................................................

 iter      E             dE          RMSdq      gap      omega  full diag
   1  -3768.5318502 -0.376853E+04  0.275E-02   10.67       0.0  T
   2  -3768.5322946 -0.444388E-03  0.147E-02   10.67       1.0  T
   3  -3768.5323049 -0.103038E-04  0.566E-03   10.67       1.0  T
   4  -3768.5323094 -0.445403E-05  0.136E-03   10.66       1.2  T
   5  -3768.5323115 -0.212799E-05  0.687E-04   10.66       2.4  T
   6  -3768.5323117 -0.180126E-06  0.223E-04   10.66       7.5  T
   7  -3768.5323117 -0.637851E-07  0.151E-04   10.66      11.1  T
     SCC iter.                  ...        8 min, 34.154 sec
     gradient                   ...        4 min, 34.529 sec
 * total energy  : -3715.9081395 Eh     change    :  -0.7441539E-01 Eh
   gradient norm :     0.2647349 Eh/a0  converged?    E=F G=F D=F
   time step     :     0.3025000 fs     power     :   0.2567592E-05
   step length   :     0.3014036 a0     speed     :   0.2410117E-01

........................................................................
.............................. CYCLE    8 ..............................
........................................................................

 iter      E             dE          RMSdq      gap      omega  full diag
   1  -3769.6345660 -0.376963E+04  0.306E-02   10.68       0.0  T
   2  -3769.6350276 -0.461543E-03  0.164E-02   10.67       1.0  T
   3  -3769.6350422 -0.146658E-04  0.579E-03   10.67       1.0  T
   4  -3769.6350463 -0.408224E-05  0.134E-03   10.67       1.3  T
   5  -3769.6350477 -0.136017E-05  0.761E-04   10.67       2.2  T
   6  -3769.6350479 -0.211379E-06  0.211E-04   10.67       8.0  T
   7  -3769.6350480 -0.557229E-07  0.150E-04   10.67      11.2  T
     SCC iter.                  ...        8 min, 38.143 sec
     gradient                   ...        4 min, 33.158 sec
 * total energy  : -3715.9637858 Eh     change    :  -0.5564631E-01 Eh
   gradient norm :     0.2426370 Eh/a0  converged?    E=F G=F D=F
   time step     :     0.3327500 fs     power     :   0.1477423E-05
   step length   :     0.3454596 a0     speed     :   0.2511275E-01

........................................................................
.............................. CYCLE    9 ..............................
........................................................................

 iter      E             dE          RMSdq      gap      omega  full diag
   1  -3770.7679889 -0.377077E+04  0.325E-02   10.68       0.0  T
   2  -3770.7683678 -0.378950E-03  0.175E-02   10.68       1.0  T
   3  -3770.7683864 -0.185330E-04  0.537E-03   10.68       1.0  T
   4  -3770.7683897 -0.336199E-05  0.129E-03   10.68       1.3  T
   5  -3770.7683902 -0.503355E-06  0.748E-04   10.68       2.2  T
   6  -3770.7683904 -0.199765E-06  0.165E-04   10.68      10.2  T
     SCC iter.                  ...        7 min, 25.612 sec
     gradient                   ...        4 min, 33.396 sec
 * total energy  : -3715.9981431 Eh     change    :  -0.3435731E-01 Eh
   gradient norm :     0.2513155 Eh/a0  converged?    E=F G=F D=F
   time step     :     0.3660250 fs     power     :   0.5561180E-06
   step length   :     0.3777639 a0     speed     :   0.2496461E-01

........................................................................
.............................. CYCLE   10 ..............................
........................................................................

 iter      E             dE          RMSdq      gap      omega  full diag
   1  -3771.8191251 -0.377182E+04  0.333E-02   10.69       0.0  T
   2  -3771.8193681 -0.243076E-03  0.185E-02   10.69       1.0  T
   3  -3771.8193840 -0.158233E-04  0.470E-03   10.69       1.0  T
   4  -3771.8193921 -0.813744E-05  0.145E-03   10.69       1.2  T
   5  -3771.8193932 -0.105338E-05  0.812E-04   10.69       2.1  T
   6  -3771.8193933 -0.130304E-06  0.137E-04   10.69      12.3  T
   7  -3771.8193933 -0.218420E-07  0.103E-04   10.69      16.3  T
     SCC iter.                  ...        8 min, 36.988 sec
     gradient                   ...        4 min, 32.175 sec
 * total energy  : -3716.0150385 Eh     change    :  -0.1689540E-01 Eh
   gradient norm :     0.2612848 Eh/a0  converged?    E=F G=F D=F
   time step     :     0.4026275 fs     power     :  -0.4106327E-07
   step length   :     0.3958243 a0     speed     :   0.2378013E-01

........................................................................
.............................. CYCLE   11 ..............................
........................................................................
 * reset velocities

 iter      E             dE          RMSdq      gap      omega  full diag
   1  -3771.8005682 -0.377180E+04  0.105E-03   10.69       0.0  T
   2  -3771.8005690 -0.847604E-06  0.646E-04   10.69       2.6  T
   3  -3771.8005691 -0.118985E-07  0.272E-04   10.69       6.2  T
     SCC iter.                  ...        3 min, 57.324 sec
     gradient                   ...        4 min, 32.164 sec
 * total energy  : -3716.0176012 Eh     change    :  -0.2562643E-02 Eh
   gradient norm :     0.2550264 Eh/a0  converged?    E=F G=F D=F
   time step     :     0.2013138 fs     power     :   0.1668855E-06
   step length   :     0.0099282 a0     speed     :   0.1192923E-02

........................................................................
.............................. CYCLE   12 ..............................
........................................................................

 iter      E             dE          RMSdq      gap      omega  full diag
   1  -3771.7633954 -0.377176E+04  0.211E-03   10.69       0.0  T
   2  -3771.7633986 -0.317852E-05  0.129E-03   10.69       1.3  T
   3  -3771.7633986 -0.285036E-07  0.526E-04   10.69       3.2  T
   4  -3771.7633987 -0.836676E-07  0.136E-04   10.69      12.4  T
     SCC iter.                  ...        4 min, 58.831 sec
     gradient                   ...        4 min, 32.700 sec
 * total energy  : -3716.0224839 Eh     change    :  -0.4882776E-02 Eh
   gradient norm :     0.2428101 Eh/a0  converged?    E=F G=F D=F
   time step     :     0.2013138 fs     power     :   0.3139050E-06
   step length   :     0.0196184 a0     speed     :   0.2357247E-02

........................................................................
.............................. CYCLE   13 ..............................
........................................................................

 iter      E             dE          RMSdq      gap      omega  full diag
   1  -3771.7088234 -0.377171E+04  0.304E-03   10.69       0.0  T
   2  -3771.7088306 -0.715573E-05  0.187E-03   10.69       1.0  T
   3  -3771.7088307 -0.104245E-06  0.792E-04   10.69       2.1  T
   4  -3771.7088309 -0.188115E-06  0.207E-04   10.69       8.1  T
     SCC iter.                  ...        4 min, 56.803 sec
     gradient                   ...        4 min, 31.747 sec
 * total energy  : -3716.0292292 Eh     change    :  -0.6745296E-02 Eh
   gradient norm :     0.2251192 Eh/a0  converged?    E=F G=F D=F
   time step     :     0.2013138 fs     power     :   0.4275591E-06
   step length   :     0.0288428 a0     speed     :   0.3465607E-02

........................................................................
.............................. CYCLE   14 ..............................
........................................................................

 iter      E             dE          RMSdq      gap      omega  full diag
   1  -3771.6382874 -0.377164E+04  0.392E-03   10.70       0.0  T
   2  -3771.6382994 -0.119667E-04  0.241E-03   10.70       1.0  T
   3  -3771.6382996 -0.179927E-06  0.102E-03   10.70       1.6  T
   4  -3771.6382999 -0.313128E-06  0.269E-04   10.70       6.3  T
   5  -3771.6383000 -0.900973E-07  0.655E-05   10.70      25.7  T
     SCC iter.                  ...        6 min, 12.569 sec
     gradient                   ...        4 min, 33.191 sec
 * total energy  : -3716.0372149 Eh     change    :  -0.7985657E-02 Eh
   gradient norm :     0.2027237 Eh/a0  converged?    E=F G=F D=F
   time step     :     0.2013138 fs     power     :   0.4980876E-06
   step length   :     0.0373889 a0     speed     :   0.4492456E-02

........................................................................
.............................. CYCLE   15 ..............................
........................................................................

 iter      E             dE          RMSdq      gap      omega  full diag
   1  -3771.5537282 -0.377155E+04  0.469E-03   10.70       0.0  T
   2  -3771.5537455 -0.172729E-04  0.289E-03   10.70       1.0  T
   3  -3771.5537457 -0.264979E-06  0.123E-03   10.70       1.4  T
   4  -3771.5537462 -0.436785E-06  0.322E-04   10.70       5.2  T
   5  -3771.5537463 -0.128642E-06  0.779E-05   10.70      21.6  T
     SCC iter.                  ...        6 min, 11.326 sec
     gradient                   ...        4 min, 33.063 sec
 * total energy  : -3716.0457241 Eh     change    :  -0.8509158E-02 Eh
   gradient norm :     0.1766749 Eh/a0  converged?    E=F G=F D=F
   time step     :     0.2013138 fs     power     :   0.5204756E-06
   step length   :     0.0450659 a0     speed     :   0.5414891E-02

........................................................................
.............................. CYCLE   16 ..............................
........................................................................

 iter      E             dE          RMSdq      gap      omega  full diag
   1  -3771.4576508 -0.377146E+04  0.533E-03   10.70       0.0  T
   2  -3771.4576732 -0.224048E-04  0.329E-03   10.70       1.0  T
   3  -3771.4576736 -0.348873E-06  0.140E-03   10.70       1.2  T
   4  -3771.4576741 -0.554952E-06  0.367E-04   10.70       4.6  T
   5  -3771.4576743 -0.166083E-06  0.889E-05   10.70      18.9  T
     SCC iter.                  ...        6 min, 10.292 sec
     gradient                   ...        4 min, 33.868 sec
 * total energy  : -3716.0540275 Eh     change    :  -0.8303418E-02 Eh
   gradient norm :     0.1485553 Eh/a0  converged?    E=F G=F D=F
   time step     :     0.2013138 fs     power     :   0.4954075E-06
   step length   :     0.0517064 a0     speed     :   0.6212786E-02

........................................................................
.............................. CYCLE   17 ..............................
........................................................................

 iter      E             dE          RMSdq      gap      omega  full diag
   1  -3771.3417662 -0.377134E+04  0.644E-03   10.71       0.0  T
   2  -3771.3417991 -0.329055E-04  0.399E-03   10.71       1.0  T
   3  -3771.3417996 -0.517120E-06  0.169E-03   10.71       1.0  T
   4  -3771.3418004 -0.794106E-06  0.444E-04   10.71       3.8  T
   5  -3771.3418006 -0.241465E-06  0.106E-04   10.71      15.9  T
     SCC iter.                  ...        6 min, 11.868 sec
     gradient                   ...        4 min, 33.144 sec
 * total energy  : -3716.0621868 Eh     change    :  -0.8159329E-02 Eh
   gradient norm :     0.1179344 Eh/a0  converged?    E=F G=F D=F
   time step     :     0.2214451 fs     power     :   0.4203920E-06
   step length   :     0.0634903 a0     speed     :   0.6935162E-02

........................................................................
.............................. CYCLE   18 ..............................
........................................................................

 iter      E             dE          RMSdq      gap      omega  full diag
   1  -3771.2082968 -0.377121E+04  0.748E-03   10.71       0.0  T
   2  -3771.2083413 -0.444937E-04  0.465E-03   10.71       1.0  T
   3  -3771.2083420 -0.701593E-06  0.196E-03   10.71       1.0  T
   4  -3771.2083430 -0.104853E-05  0.517E-04   10.71       3.3  T
   5  -3771.2083434 -0.324320E-06  0.122E-04   10.71      13.7  T
   6  -3771.2083434 -0.111413E-07  0.828E-05   10.71      20.3  T
     SCC iter.                  ...        7 min, 24.113 sec
     gradient                   ...        4 min, 32.290 sec
 * total energy  : -3716.0692049 Eh     change    :  -0.7018052E-02 Eh
   gradient norm :     0.0910212 Eh/a0  converged?    E=F G=F D=F
   time step     :     0.2435896 fs     power     :   0.2990271E-06
   step length   :     0.0756974 a0     speed     :   0.7516871E-02

........................................................................
.............................. CYCLE   19 ..............................
........................................................................

 iter      E             dE          RMSdq      gap      omega  full diag
   1  -3771.0657545 -0.377107E+04  0.819E-03   10.72       0.0  T
   2  -3771.0658073 -0.528335E-04  0.512E-03   10.72       1.0  T
   3  -3771.0658081 -0.797062E-06  0.213E-03   10.72       1.0  T
   4  -3771.0658093 -0.123561E-05  0.563E-04   10.72       3.0  T
   5  -3771.0658097 -0.381383E-06  0.126E-04   10.72      13.4  T
   6  -3771.0658097 -0.967293E-08  0.806E-05   10.72      20.9  T
     SCC iter.                  ...        7 min, 21.769 sec
     gradient                   ...        4 min, 32.875 sec
 * total energy  : -3716.0741582 Eh     change    :  -0.4953391E-02 Eh
   gradient norm :     0.0812883 Eh/a0  converged?    E=F G=F D=F
   time step     :     0.2679486 fs     power     :   0.1562056E-06
   step length   :     0.0869194 a0     speed     :   0.7846576E-02

........................................................................
.............................. CYCLE   20 ..............................
........................................................................

 iter      E             dE          RMSdq      gap      omega  full diag
   1  -3770.9325736 -0.377093E+04  0.821E-03   10.73       0.0  T
   2  -3770.9326239 -0.503118E-04  0.518E-03   10.73       1.0  T
   3  -3770.9326245 -0.652147E-06  0.208E-03   10.73       1.0  T
   4  -3770.9326258 -0.126881E-05  0.554E-04   10.73       3.0  T
   5  -3770.9326262 -0.365485E-06  0.125E-04   10.73      13.4  T
   6  -3770.9326262 -0.789532E-08  0.745E-05   10.73      22.6  T
     SCC iter.                  ...        7 min, 19.648 sec
     gradient                   ...        4 min, 32.593 sec
 * total energy  : -3716.0768623 Eh     change    :  -0.2704086E-02 Eh
   gradient norm :     0.0950135 Eh/a0  converged?    E=F G=F D=F
   time step     :     0.2947435 fs     power     :   0.4404267E-07
   step length   :     0.0945083 a0     speed     :   0.7756058E-02
 * RMSD in coord.:     0.0373872 a0     energy gain  -0.7055903E+00 Eh

........................................................................
.............................. CYCLE   21 ..............................
........................................................................

 iter      E             dE          RMSdq      gap      omega  full diag
   1  -3770.8519352 -0.377085E+04  0.582E-03   10.74       0.0  T
   2  -3770.8519570 -0.217969E-04  0.371E-03   10.74       1.0  T
   3  -3770.8519572 -0.147835E-06  0.136E-03   10.74       1.2  T
   4  -3770.8519579 -0.707967E-06  0.367E-04   10.74       4.6  T
   5  -3770.8519581 -0.161654E-06  0.910E-05   10.74      18.5  T
     SCC iter.                  ...        6 min,  5.106 sec
     gradient                   ...        4 min, 37.483 sec
 * total energy  : -3716.0781126 Eh     change    :  -0.1250269E-02 Eh
   gradient norm :     0.1116605 Eh/a0  converged?    E=F G=F D=F
   time step     :     0.2500000 fs     power     :   0.2446657E-07
   step length   :     0.0748533 a0     speed     :   0.7242455E-02

........................................................................
.............................. CYCLE   22 ..............................
........................................................................

 iter      E             dE          RMSdq      gap      omega  full diag
   1  -3770.8063781 -0.377081E+04  0.479E-03   10.74       0.0  T
   2  -3770.8063883 -0.101941E-04  0.306E-03   10.75       1.0  T
   3  -3770.8063882  0.104230E-06  0.884E-04   10.75       1.9  T
   4  -3770.8063888 -0.551801E-06  0.251E-04   10.75       6.7  T
     SCC iter.                  ...        4 min, 53.353 sec
     gradient                   ...        4 min, 41.497 sec
 * total energy  : -3716.0796539 Eh     change    :  -0.1541307E-02 Eh
   gradient norm :     0.1236812 Eh/a0  converged?    E=F G=F D=F
   time step     :     0.2500000 fs     power     :   0.5838895E-07
   step length   :     0.0695664 a0     speed     :   0.6730920E-02

........................................................................
.............................. CYCLE   23 ..............................
........................................................................

 iter      E             dE          RMSdq      gap      omega  full diag
   1  -3770.7951772 -0.377080E+04  0.418E-03   10.75       0.0  T
   2  -3770.7951804 -0.312169E-05  0.261E-03   10.75       1.0  T
   3  -3770.7951802  0.126945E-06  0.407E-04   10.75       4.1  T
   4  -3770.7951806 -0.343299E-06  0.149E-04   10.75      11.3  T
     SCC iter.                  ...        5 min,  0.834 sec
     gradient                   ...        4 min, 44.734 sec
 * total energy  : -3716.0821591 Eh     change    :  -0.2505200E-02 Eh
   gradient norm :     0.1286139 Eh/a0  converged?    E=F G=F D=F
   time step     :     0.2500000 fs     power     :   0.1201033E-06
   step length   :     0.0659480 a0     speed     :   0.6380827E-02

........................................................................
.............................. CYCLE   24 ..............................
........................................................................

 iter      E             dE          RMSdq      gap      omega  full diag
   1  -3770.8158928 -0.377082E+04  0.409E-03   10.76       0.0  T
   2  -3770.8158933 -0.490848E-06  0.246E-03   10.76       1.0  T
   3  -3770.8158934 -0.910054E-07  0.184E-04   10.76       9.1  T
   4  -3770.8158935 -0.481868E-07  0.102E-04   10.76      16.5  T
     SCC iter.                  ...        4 min, 55.153 sec
     gradient                   ...        4 min, 33.380 sec
 * total energy  : -3716.0858337 Eh     change    :  -0.3674606E-02 Eh
   gradient norm :     0.1264001 Eh/a0  converged?    E=F G=F D=F
   time step     :     0.2500000 fs     power     :   0.1854703E-06
   step length   :     0.0645757 a0     speed     :   0.6248047E-02

........................................................................
.............................. CYCLE   25 ..............................
........................................................................

 iter      E             dE          RMSdq      gap      omega  full diag
   1  -3770.8651686 -0.377087E+04  0.444E-03   10.77       0.0  T
   2  -3770.8651699 -0.128879E-05  0.257E-03   10.77       1.0  T
   3  -3770.8651699 -0.286886E-07  0.360E-04   10.77       4.7  T
   4  -3770.8651700 -0.146225E-06  0.116E-04   10.77      14.5  T
     SCC iter.                  ...        4 min, 58.782 sec
     gradient                   ...        4 min, 32.933 sec
 * total energy  : -3716.0905135 Eh     change    :  -0.4679813E-02 Eh
   gradient norm :     0.1180235 Eh/a0  converged?    E=F G=F D=F
   time step     :     0.2500000 fs     power     :   0.2367609E-06
   step length   :     0.0652675 a0     speed     :   0.6314981E-02

........................................................................
.............................. CYCLE   26 ..............................
........................................................................

 iter      E             dE          RMSdq      gap      omega  full diag
   1  -3770.9480899 -0.377095E+04  0.553E-03   10.78       0.0  T
   2  -3770.9480954 -0.550864E-05  0.315E-03   10.78       1.0  T
   3  -3770.9480953  0.113003E-06  0.760E-04   10.78       2.2  T
   4  -3770.9480958 -0.462855E-06  0.172E-04   10.78       9.8  T
     SCC iter.                  ...        4 min, 57.045 sec
     gradient                   ...        4 min, 34.093 sec
 * total energy  : -3716.0963711 Eh     change    :  -0.5857619E-02 Eh
   gradient norm :     0.1035762 Eh/a0  converged?    E=F G=F D=F
   time step     :     0.2750000 fs     power     :   0.2635141E-06
   step length   :     0.0747014 a0     speed     :   0.6570692E-02

........................................................................
.............................. CYCLE   27 ..............................
........................................................................

 iter      E             dE          RMSdq      gap      omega  full diag
   1  -3771.0661782 -0.377107E+04  0.683E-03   10.79       0.0  T
   2  -3771.0661913 -0.131265E-04  0.386E-03   10.79       1.0  T
   3  -3771.0661911  0.170744E-06  0.113E-03   10.79       1.5  T
   4  -3771.0661919 -0.789541E-06  0.247E-04   10.79       6.8  T
   5  -3771.0661920 -0.960763E-07  0.118E-04   10.79      14.3  T
     SCC iter.                  ...        6 min, 12.999 sec
     gradient                   ...        4 min, 32.370 sec
 * total energy  : -3716.1028738 Eh     change    :  -0.6502605E-02 Eh
   gradient norm :     0.0854103 Eh/a0  converged?    E=F G=F D=F
   time step     :     0.3025000 fs     power     :   0.2554356E-06
   step length   :     0.0868912 a0     speed     :   0.6948088E-02

........................................................................
.............................. CYCLE   28 ..............................
........................................................................

 iter      E             dE          RMSdq      gap      omega  full diag
   1  -3771.2170368 -0.377122E+04  0.811E-03   10.80       0.0  T
   2  -3771.2170592 -0.224302E-04  0.457E-03   10.80       1.0  T
   3  -3771.2170591  0.168715E-06  0.143E-03   10.80       1.2  T
   4  -3771.2170601 -0.103696E-05  0.315E-04   10.80       5.3  T
   5  -3771.2170603 -0.158887E-06  0.130E-04   10.80      13.0  T
   6  -3771.2170603 -0.167174E-07  0.775E-05   10.80      21.7  T
     SCC iter.                  ...        7 min, 23.889 sec
     gradient                   ...        4 min, 40.259 sec
 * total energy  : -3716.1092166 Eh     change    :  -0.6342805E-02 Eh
   gradient norm :     0.0700928 Eh/a0  converged?    E=F G=F D=F
   time step     :     0.3327500 fs     power     :   0.2129987E-06
   step length   :     0.1011534 a0     speed     :   0.7353221E-02

........................................................................
.............................. CYCLE   29 ..............................
........................................................................

 iter      E             dE          RMSdq      gap      omega  full diag
   1  -3771.3894678 -0.377139E+04  0.898E-03   10.81       0.0  T
   2  -3771.3894955 -0.277601E-04  0.504E-03   10.81       1.0  T
   3  -3771.3894954  0.142850E-06  0.154E-03   10.81       1.1  T
   4  -3771.3894964 -0.108013E-05  0.347E-04   10.81       4.9  T
   5  -3771.3894966 -0.192183E-06  0.130E-04   10.81      12.9  T
   6  -3771.3894967 -0.135055E-07  0.736E-05   10.81      22.8  T
     SCC iter.                  ...        7 min, 25.669 sec
     gradient                   ...        4 min, 33.018 sec
 * total energy  : -3716.1147117 Eh     change    :  -0.5495121E-02 Eh
   gradient norm :     0.0673597 Eh/a0  converged?    E=F G=F D=F
   time step     :     0.3660250 fs     power     :   0.1559651E-06
   step length   :     0.1159570 a0     speed     :   0.7663046E-02

........................................................................
.............................. CYCLE   30 ..............................
........................................................................

 iter      E             dE          RMSdq      gap      omega  full diag
   1  -3771.5596482 -0.377156E+04  0.903E-03   10.82       0.0  T
   2  -3771.5596708 -0.225760E-04  0.505E-03   10.82       1.0  T
   3  -3771.5596708  0.752925E-08  0.134E-03   10.82       1.3  T
   4  -3771.5596716 -0.741143E-06  0.305E-04   10.82       5.5  T
   5  -3771.5596717 -0.142132E-06  0.125E-04   10.82      13.5  T
     SCC iter.                  ...        6 min, 13.621 sec
     gradient                   ...        4 min, 33.756 sec
 * total energy  : -3716.1194247 Eh     change    :  -0.4713043E-02 Eh
   gradient norm :     0.0757264 Eh/a0  converged?    E=F G=F D=F
   time step     :     0.4026275 fs     power     :   0.1194670E-06
   step length   :     0.1290602 a0     speed     :   0.7753610E-02

........................................................................
.............................. CYCLE   31 ..............................
........................................................................

 iter      E             dE          RMSdq      gap      omega  full diag
   1  -3771.7002141 -0.377170E+04  0.840E-03   10.82       0.0  T
   2  -3771.7002245 -0.103533E-04  0.473E-03   10.82       1.0  T
   3  -3771.7002247 -0.265276E-06  0.867E-04   10.82       1.9  T
   4  -3771.7002250 -0.231305E-06  0.199E-04   10.82       8.5  T
     SCC iter.                  ...        5 min,  0.132 sec
     gradient                   ...        4 min, 33.384 sec
 * total energy  : -3716.1242780 Eh     change    :  -0.4853239E-02 Eh
   gradient norm :     0.0820653 Eh/a0  converged?    E=F G=F D=F
   time step     :     0.4428903 fs     power     :   0.1203238E-06
   step length   :     0.1409587 a0     speed     :   0.7698583E-02

........................................................................
.............................. CYCLE   32 ..............................
........................................................................

 iter      E             dE          RMSdq      gap      omega  full diag
   1  -3771.7884502 -0.377179E+04  0.772E-03   10.83       0.0  T
   2  -3771.7884529 -0.271273E-05  0.452E-03   10.83       1.0  T
   3  -3771.7884528  0.151384E-06  0.622E-04   10.83       2.7  T
   4  -3771.7884535 -0.696447E-06  0.184E-04   10.83       9.1  T
     SCC iter.                  ...        5 min,  1.449 sec
     gradient                   ...        4 min, 35.095 sec
 * total energy  : -3716.1301910 Eh     change    :  -0.5913061E-02 Eh
   gradient norm :     0.0780154 Eh/a0  converged?    E=F G=F D=F
   time step     :     0.4871793 fs     power     :   0.1396209E-06
   step length   :     0.1549595 a0     speed     :   0.7693865E-02

........................................................................
.............................. CYCLE   33 ..............................
........................................................................

 iter      E             dE          RMSdq      gap      omega  full diag
   1  -3771.8098404 -0.377181E+04  0.769E-03   10.84       0.0  T
   2  -3771.8098508 -0.104076E-04  0.482E-03   10.85       1.0  T
   3  -3771.8098494  0.141097E-05  0.114E-03   10.85       1.5  T
   4  -3771.8098520 -0.260440E-05  0.222E-04   10.85       7.6  T
   5  -3771.8098520 -0.337773E-07  0.125E-04   10.85      13.4  T
   6  -3771.8098520 -0.867431E-08  0.545E-05   10.85      30.8  T
     SCC iter.                  ...        7 min, 21.308 sec
     gradient                   ...        4 min, 35.335 sec
 * total energy  : -3716.1370412 Eh     change    :  -0.6850210E-02 Eh
   gradient norm :     0.0651170 Eh/a0  converged?    E=F G=F D=F
   time step     :     0.5358972 fs     power     :   0.1413500E-06
   step length   :     0.1734603 a0     speed     :   0.7829492E-02

........................................................................
.............................. CYCLE   34 ..............................
........................................................................

 iter      E             dE          RMSdq      gap      omega  full diag
   1  -3771.7672342 -0.377177E+04  0.830E-03   10.86       0.0  T
   2  -3771.7672644 -0.302023E-04  0.543E-03   10.86       1.0  T
   3  -3771.7672638  0.604011E-06  0.168E-03   10.86       1.0  T
   4  -3771.7672661 -0.236304E-05  0.395E-04   10.86       4.3  T
   5  -3771.7672663 -0.214312E-06  0.155E-04   10.86      10.8  T
   6  -3771.7672664 -0.173759E-07  0.820E-05   10.86      20.5  T
     SCC iter.                  ...        7 min, 28.465 sec
     gradient                   ...        4 min, 35.272 sec
 * total energy  : -3716.1436156 Eh     change    :  -0.6574349E-02 Eh
   gradient norm :     0.0576534 Eh/a0  converged?    E=F G=F D=F
   time step     :     0.5894869 fs     power     :   0.1107230E-06
   step length   :     0.1957084 a0     speed     :   0.8030643E-02

........................................................................
.............................. CYCLE   35 ..............................
........................................................................

 iter      E             dE          RMSdq      gap      omega  full diag
   1  -3771.6989250 -0.377170E+04  0.889E-03   10.88       0.0  T
   2  -3771.6989603 -0.352484E-04  0.572E-03   10.88       1.0  T
   3  -3771.6989602  0.130212E-06  0.162E-03   10.88       1.0  T
   4  -3771.6989618 -0.163541E-05  0.494E-04   10.88       3.4  T
   5  -3771.6989621 -0.300452E-06  0.173E-04   10.88       9.7  T
   6  -3771.6989621 -0.163545E-07  0.769E-05   10.88      21.9  T
     SCC iter.                  ...        7 min, 34.365 sec
     gradient                   ...        4 min, 32.957 sec
 * total energy  : -3716.1493275 Eh     change    :  -0.5711899E-02 Eh
   gradient norm :     0.0635791 Eh/a0  converged?    E=F G=F D=F
   time step     :     0.6484356 fs     power     :   0.8308029E-07
   step length   :     0.2174675 a0     speed     :   0.8112275E-02

........................................................................
.............................. CYCLE   36 ..............................
........................................................................

 iter      E             dE          RMSdq      gap      omega  full diag
   1  -3771.6666933 -0.377167E+04  0.994E-03   10.90       0.0  T
   2  -3771.6667090 -0.157663E-04  0.598E-03   10.90       1.0  T
   3  -3771.6667097 -0.709747E-06  0.912E-04   10.90       1.8  T
   4  -3771.6667102 -0.509979E-06  0.325E-04   10.90       5.2  T
     SCC iter.                  ...        4 min, 58.312 sec
     gradient                   ...        4 min, 40.999 sec
 * total energy  : -3716.1553077 Eh     change    :  -0.5980221E-02 Eh
   gradient norm :     0.0636830 Eh/a0  converged?    E=F G=F D=F
   time step     :     0.7132792 fs     power     :   0.8543653E-07
   step length   :     0.2380771 a0     speed     :   0.8073711E-02

........................................................................
.............................. CYCLE   37 ..............................
........................................................................

 iter      E             dE          RMSdq      gap      omega  full diag
   1  -3771.7165203 -0.377172E+04  0.120E-02   10.93       0.0  T
   2  -3771.7165282 -0.792686E-05  0.694E-03   10.93       1.0  T
   3  -3771.7165281  0.181169E-06  0.122E-03   10.93       1.4  T
   4  -3771.7165301 -0.202879E-05  0.346E-04   10.93       4.9  T
   5  -3771.7165301 -0.145133E-07  0.120E-04   10.93      14.0  T
   6  -3771.7165301 -0.579803E-08  0.322E-05   10.93      52.2  T
     SCC iter.                  ...        7 min, 23.238 sec
     gradient                   ...        4 min, 37.304 sec
 * total energy  : -3716.1618761 Eh     change    :  -0.6568352E-02 Eh
   gradient norm :     0.0521572 Eh/a0  converged?    E=F G=F D=F
   time step     :     0.7846071 fs     power     :   0.7948882E-07
   step length   :     0.2630082 a0     speed     :   0.8108342E-02

........................................................................
.............................. CYCLE   38 ..............................
........................................................................

 iter      E             dE          RMSdq      gap      omega  full diag
   1  -3771.8471110 -0.377185E+04  0.132E-02   10.97       0.0  T
   2  -3771.8471343 -0.233128E-04  0.762E-03   10.97       1.0  T
   3  -3771.8471332  0.108018E-05  0.171E-03   10.97       1.0  T
   4  -3771.8471365 -0.329999E-05  0.359E-04   10.96       4.7  T
   5  -3771.8471366 -0.108647E-06  0.180E-04   10.96       9.4  T
   6  -3771.8471366 -0.111550E-07  0.622E-05   10.96      27.1  T
     SCC iter.                  ...        7 min, 26.845 sec
     gradient                   ...        4 min, 36.888 sec
 * total energy  : -3716.1673454 Eh     change    :  -0.5469380E-02 Eh
   gradient norm :     0.0534360 Eh/a0  converged?    E=F G=F D=F
   time step     :     0.8630678 fs     power     :   0.4591879E-07
   step length   :     0.2908377 a0     speed     :   0.8151189E-02

........................................................................
.............................. CYCLE   39 ..............................
........................................................................

 iter      E             dE          RMSdq      gap      omega  full diag
   1  -3771.9821346 -0.377198E+04  0.118E-02   10.99       0.0  T
   2  -3771.9821492 -0.146263E-04  0.687E-03   10.99       1.0  T
   3  -3771.9821496 -0.406036E-06  0.103E-03   10.99       1.6  T
   4  -3771.9821504 -0.752220E-06  0.273E-04   10.99       6.2  T
   5  -3771.9821504 -0.461446E-07  0.145E-04   10.99      11.6  T
     SCC iter.                  ...        6 min, 14.387 sec
     gradient                   ...        4 min, 33.275 sec
 * total energy  : -3716.1722942 Eh     change    :  -0.4948733E-02 Eh
   gradient norm :     0.0581228 Eh/a0  converged?    E=F G=F D=F
   time step     :     0.9493746 fs     power     :   0.4170952E-07
   step length   :     0.3142484 a0     speed     :   0.8006646E-02

........................................................................
.............................. CYCLE   40 ..............................
........................................................................

 iter      E             dE          RMSdq      gap      omega  full diag
   1  -3772.0517658 -0.377205E+04  0.115E-02   11.02       0.0  T
   2  -3772.0517811 -0.152772E-04  0.689E-03   11.02       1.0  T
   3  -3772.0517792  0.191707E-05  0.157E-03   11.02       1.1  T
   4  -3772.0517837 -0.450953E-05  0.334E-04   11.02       5.0  T
   5  -3772.0517837 -0.373284E-07  0.180E-04   11.02       9.3  T
   6  -3772.0517838 -0.180457E-07  0.712E-05   11.02      23.6  T
     SCC iter.                  ...        7 min, 22.612 sec
     gradient                   ...        4 min, 33.549 sec
 * total energy  : -3716.1781080 Eh     change    :  -0.5813842E-02 Eh
   gradient norm :     0.0496180 Eh/a0  converged?    E=F G=F D=F
   time step     :     1.0443120 fs     power     :   0.4362027E-07
   step length   :     0.3418493 a0     speed     :   0.7918074E-02

........................................................................
.............................. CYCLE   41 ..............................
........................................................................

 iter      E             dE          RMSdq      gap      omega  full diag
   1  -3772.0730817 -0.377207E+04  0.125E-02   11.04       0.0  T
   2  -3772.0731127 -0.310720E-04  0.773E-03   11.04       1.0  T
   3  -3772.0731108  0.191664E-05  0.177E-03   11.04       1.0  T
   4  -3772.0731158 -0.498154E-05  0.427E-04   11.04       3.9  T
   5  -3772.0731160 -0.171616E-06  0.231E-04   11.04       7.3  T
   6  -3772.0731160 -0.401756E-07  0.110E-04   11.04      15.4  T
     SCC iter.                  ...        7 min, 29.511 sec
     gradient                   ...        4 min, 33.499 sec
 * total energy  : -3716.1831133 Eh     change    :  -0.5005340E-02 Eh
   gradient norm :     0.0501189 Eh/a0  converged?    E=F G=F D=F
   time step     :     1.1487432 fs     power     :   0.2199194E-07
   step length   :     0.3740993 a0     speed     :   0.7877329E-02

........................................................................
.............................. CYCLE   42 ..............................
........................................................................

 iter      E             dE          RMSdq      gap      omega  full diag
   1  -3772.1399989 -0.377214E+04  0.140E-02   11.07       0.0  T
   2  -3772.1400078 -0.890230E-05  0.813E-03   11.07       1.0  T
   3  -3772.1400081 -0.232547E-06  0.104E-03   11.07       1.6  T
   4  -3772.1400093 -0.126760E-05  0.322E-04   11.07       5.2  T
   5  -3772.1400094 -0.302407E-07  0.162E-04   11.07      10.4  T
   6  -3772.1400094 -0.130044E-07  0.540E-05   11.07      31.2  T
     SCC iter.                  ...        7 min, 25.394 sec
     gradient                   ...        4 min, 31.969 sec
 * total energy  : -3716.1872275 Eh     change    :  -0.4114180E-02 Eh
   gradient norm :     0.0471119 Eh/a0  converged?    E=F G=F D=F
   time step     :     1.2500000 fs     power     :   0.9685957E-08
   step length   :     0.3981816 a0     speed     :   0.7705241E-02
 * RMSD in coord.:     0.0595425 a0     energy gain  -0.1103652E+00 Eh

........................................................................
.............................. CYCLE   43 ..............................
........................................................................

 iter      E             dE          RMSdq      gap      omega  full diag
   1  -3772.1537107 -0.377215E+04  0.235E-03   11.08       0.0  T
   2  -3772.1537109 -0.269710E-06  0.136E-03   11.08       1.2  T
   3  -3772.1537109  0.154478E-07  0.209E-04   11.08       8.0  T
   4  -3772.1537110 -0.610457E-07  0.521E-05   11.08      32.3  T
     SCC iter.                  ...        5 min,  5.998 sec
     gradient                   ...        4 min, 33.793 sec
 * total energy  : -3716.1878172 Eh     change    :  -0.5896770E-03 Eh
   gradient norm :     0.0474292 Eh/a0  converged?    E=F G=F D=F
   time step     :     0.2500000 fs     power     :   0.2706724E-07
   step length   :     0.0729846 a0     speed     :   0.7061656E-02

........................................................................
.............................. CYCLE   44 ..............................
........................................................................

 iter      E             dE          RMSdq      gap      omega  full diag
   1  -3772.1666941 -0.377217E+04  0.225E-03   11.08       0.0  T
   2  -3772.1666947 -0.528900E-06  0.132E-03   11.08       1.3  T
   3  -3772.1666947  0.238319E-07  0.240E-04   11.08       7.0  T
   4  -3772.1666947 -0.702116E-07  0.490E-05   11.08      34.3  T
     SCC iter.                  ...        4 min, 54.565 sec
     gradient                   ...        4 min, 33.150 sec
 * total energy  : -3716.1886737 Eh     change    :  -0.8565238E-03 Eh
   gradient norm :     0.0440297 Eh/a0  converged?    E=F G=F D=F
   time step     :     0.2500000 fs     power     :   0.4119033E-07
   step length   :     0.0679064 a0     speed     :   0.6570304E-02

........................................................................
.............................. CYCLE   45 ..............................
........................................................................

 iter      E             dE          RMSdq      gap      omega  full diag
   1  -3772.1773382 -0.377218E+04  0.240E-03   11.09       0.0  T
   2  -3772.1773390 -0.859867E-06  0.144E-03   11.09       1.2  T
   3  -3772.1773390  0.113091E-07  0.270E-04   11.09       6.2  T
   4  -3772.1773391 -0.729906E-07  0.610E-05   11.09      27.6  T
     SCC iter.                  ...        4 min, 56.410 sec
     gradient                   ...        4 min, 34.116 sec
 * total energy  : -3716.1896761 Eh     change    :  -0.1002334E-02 Eh
   gradient norm :     0.0379906 Eh/a0  converged?    E=F G=F D=F
   time step     :     0.2500000 fs     power     :   0.4742390E-07
   step length   :     0.0641890 a0     speed     :   0.6210634E-02

........................................................................
.............................. CYCLE   46 ..............................
........................................................................

 iter      E             dE          RMSdq      gap      omega  full diag
   1  -3772.1839576 -0.377218E+04  0.264E-03   11.10       0.0  T
   2  -3772.1839587 -0.107068E-05  0.160E-03   11.10       1.0  T
   3  -3772.1839587 -0.765976E-08  0.282E-04   11.10       6.0  T
   4  -3772.1839587 -0.753025E-07  0.725E-05   11.10      23.2  T
     SCC iter.                  ...        4 min, 56.036 sec
     gradient                   ...        4 min, 34.286 sec
 * total energy  : -3716.1906649 Eh     change    :  -0.9888300E-03 Eh
   gradient norm :     0.0309936 Eh/a0  converged?    E=F G=F D=F
   time step     :     0.2500000 fs     power     :   0.4483875E-07
   step length   :     0.0614662 a0     speed     :   0.5947189E-02

........................................................................
.............................. CYCLE   47 ..............................
........................................................................

 iter      E             dE          RMSdq      gap      omega  full diag
   1  -3772.1848735 -0.377218E+04  0.283E-03   11.10       0.0  T
   2  -3772.1848746 -0.105993E-05  0.172E-03   11.10       1.0  T
   3  -3772.1848746 -0.238574E-07  0.277E-04   11.10       6.1  T
   4  -3772.1848747 -0.798418E-07  0.809E-05   11.10      20.8  T
     SCC iter.                  ...        5 min,  0.201 sec
     gradient                   ...        4 min, 33.110 sec
 * total energy  : -3716.1915053 Eh     change    :  -0.8403986E-03 Eh
   gradient norm :     0.0255071 Eh/a0  converged?    E=F G=F D=F
   time step     :     0.2500000 fs     power     :   0.3574445E-07
   step length   :     0.0592818 a0     speed     :   0.5735833E-02

........................................................................
.............................. CYCLE   48 ..............................
........................................................................

 iter      E             dE          RMSdq      gap      omega  full diag
   1  -3772.1781837 -0.377218E+04  0.317E-03   11.11       0.0  T
   2  -3772.1781848 -0.102613E-05  0.190E-03   11.11       1.0  T
   3  -3772.1781848 -0.277169E-07  0.296E-04   11.11       5.7  T
   4  -3772.1781849 -0.114336E-06  0.951E-05   11.11      17.7  T
     SCC iter.                  ...        5 min,  6.548 sec
     gradient                   ...        4 min, 32.420 sec
 * total energy  : -3716.1921881 Eh     change    :  -0.6827978E-03 Eh
   gradient norm :     0.0240765 Eh/a0  converged?    E=F G=F D=F
   time step     :     0.2750000 fs     power     :   0.2346697E-07
   step length   :     0.0628427 a0     speed     :   0.5527612E-02

........................................................................
.............................. CYCLE   49 ..............................
........................................................................

 iter      E             dE          RMSdq      gap      omega  full diag
   1  -3772.1631192 -0.377216E+04  0.326E-03   11.11       0.0  T
   2  -3772.1631201 -0.862399E-06  0.193E-03   11.11       1.0  T
   3  -3772.1631201 -0.235741E-08  0.322E-04   11.11       5.2  T
   4  -3772.1631202 -0.163698E-06  0.101E-04   11.11      16.6  T
     SCC iter.                  ...        4 min, 55.758 sec
     gradient                   ...        4 min, 31.495 sec
 * total energy  : -3716.1927017 Eh     change    :  -0.5136554E-03 Eh
   gradient norm :     0.0270630 Eh/a0  converged?    E=F G=F D=F
   time step     :     0.3025000 fs     power     :   0.1450471E-07
   step length   :     0.0656911 a0     speed     :   0.5252866E-02

........................................................................
.............................. CYCLE   50 ..............................
........................................................................

 iter      E             dE          RMSdq      gap      omega  full diag
   1  -3772.1417909 -0.377214E+04  0.315E-03   11.12       0.0  T
   2  -3772.1417917 -0.804304E-06  0.182E-03   11.12       1.0  T
   3  -3772.1417916  0.190125E-07  0.337E-04   11.12       5.0  T
   4  -3772.1417918 -0.178019E-06  0.949E-05   11.12      17.7  T
     SCC iter.                  ...        4 min, 58.225 sec
     gradient                   ...        4 min, 31.028 sec
 * total energy  : -3716.1931561 Eh     change    :  -0.4543526E-03 Eh
   gradient norm :     0.0308321 Eh/a0  converged?    E=F G=F D=F
   time step     :     0.3327500 fs     power     :   0.1247128E-07
   step length   :     0.0677189 a0     speed     :   0.4922737E-02

........................................................................
.............................. CYCLE   51 ..............................
........................................................................

 iter      E             dE          RMSdq      gap      omega  full diag
   1  -3772.1175959 -0.377212E+04  0.302E-03   11.12       0.0  T
   2  -3772.1175968 -0.924183E-06  0.173E-03   11.12       1.0  T
   3  -3772.1175968  0.176133E-07  0.333E-04   11.12       5.0  T
   4  -3772.1175970 -0.143391E-06  0.813E-05   11.12      20.7  T
     SCC iter.                  ...        4 min, 56.216 sec
     gradient                   ...        4 min, 34.525 sec
 * total energy  : -3716.1937020 Eh     change    :  -0.5458815E-03 Eh
   gradient norm :     0.0325387 Eh/a0  converged?    E=F G=F D=F
   time step     :     0.3660250 fs     power     :   0.1590198E-07
   step length   :     0.0697940 a0     speed     :   0.4612351E-02

........................................................................
.............................. CYCLE   52 ..............................
........................................................................

 iter      E             dE          RMSdq      gap      omega  full diag
   1  -3772.0944784 -0.377209E+04  0.308E-03   11.12       0.0  T
   2  -3772.0944796 -0.111673E-05  0.176E-03   11.13       1.0  T
   3  -3772.0944796  0.834598E-08  0.321E-04   11.13       5.2  T
   4  -3772.0944797 -0.994191E-07  0.686E-05   11.13      24.5  T
     SCC iter.                  ...        4 min, 59.023 sec
     gradient                   ...        4 min, 34.212 sec
 * total energy  : -3716.1944351 Eh     change    :  -0.7331097E-03 Eh
   gradient norm :     0.0312247 Eh/a0  converged?    E=F G=F D=F
   time step     :     0.4026275 fs     power     :   0.2072643E-07
   step length   :     0.0727890 a0     speed     :   0.4372981E-02

........................................................................
.............................. CYCLE   53 ..............................
........................................................................

 iter      E             dE          RMSdq      gap      omega  full diag
   1  -3772.0769360 -0.377208E+04  0.338E-03   11.13       0.0  T
   2  -3772.0769372 -0.118475E-05  0.196E-03   11.13       1.0  T
   3  -3772.0769372 -0.327873E-08  0.300E-04   11.13       5.6  T
   4  -3772.0769373 -0.766922E-07  0.622E-05   11.13      27.0  T
     SCC iter.                  ...        4 min, 53.600 sec
     gradient                   ...        4 min, 38.373 sec
 * total energy  : -3716.1953378 Eh     change    :  -0.9027341E-03 Eh
   gradient norm :     0.0274722 Eh/a0  converged?    E=F G=F D=F
   time step     :     0.4428903 fs     power     :   0.2283637E-07
   step length   :     0.0772235 a0     speed     :   0.4217632E-02

........................................................................
.............................. CYCLE   54 ..............................
........................................................................

 iter      E             dE          RMSdq      gap      omega  full diag
   1  -3772.0697898 -0.377207E+04  0.377E-03   11.13       0.0  T
   2  -3772.0697908 -0.992701E-06  0.222E-03   11.13       1.0  T
   3  -3772.0697908 -0.492082E-08  0.283E-04   11.13       5.9  T
   4  -3772.0697909 -0.100213E-06  0.759E-05   11.13      22.2  T
     SCC iter.                  ...        4 min, 57.634 sec
     gradient                   ...        4 min, 32.698 sec
 * total energy  : -3716.1962837 Eh     change    :  -0.9458427E-03 Eh
   gradient norm :     0.0234697 Eh/a0  converged?    E=F G=F D=F
   time step     :     0.4871793 fs     power     :   0.2027201E-07
   step length   :     0.0830685 a0     speed     :   0.4124419E-02

........................................................................
.............................. CYCLE   55 ..............................
........................................................................

 iter      E             dE          RMSdq      gap      omega  full diag
   1  -3772.0765992 -0.377208E+04  0.399E-03   11.13       0.0  T
   2  -3772.0766000 -0.788320E-06  0.236E-03   11.13       1.0  T
   3  -3772.0766000  0.254413E-07  0.317E-04   11.13       5.3  T
   4  -3772.0766002 -0.182392E-06  0.998E-05   11.13      16.8  T
     SCC iter.                  ...        4 min, 58.241 sec
     gradient                   ...        4 min, 34.063 sec
 * total energy  : -3716.1971269 Eh     change    :  -0.8432129E-03 Eh
   gradient norm :     0.0221259 Eh/a0  converged?    E=F G=F D=F
   time step     :     0.5358972 fs     power     :   0.1475009E-07
   step length   :     0.0895782 a0     speed     :   0.4043300E-02

........................................................................
.............................. CYCLE   56 ..............................
........................................................................

 iter      E             dE          RMSdq      gap      omega  full diag
   1  -3772.0959153 -0.377210E+04  0.385E-03   11.14       0.0  T
   2  -3772.0959164 -0.112431E-05  0.227E-03   11.14       1.0  T
   3  -3772.0959164  0.250197E-07  0.367E-04   11.14       4.6  T
   4  -3772.0959166 -0.203245E-06  0.112E-04   11.14      15.0  T
     SCC iter.                  ...        4 min, 56.265 sec
     gradient                   ...        4 min, 32.793 sec
 * total energy  : -3716.1978402 Eh     change    :  -0.7133294E-03 Eh
   gradient norm :     0.0237923 Eh/a0  converged?    E=F G=F D=F
   time step     :     0.5894869 fs     power     :   0.1059572E-07
   step length   :     0.0956155 a0     speed     :   0.3923459E-02

........................................................................
.............................. CYCLE   57 ..............................
........................................................................

 iter      E             dE          RMSdq      gap      omega  full diag
   1  -3772.1201643 -0.377212E+04  0.352E-03   11.14       0.0  T
   2  -3772.1201660 -0.166994E-05  0.206E-03   11.14       1.0  T
   3  -3772.1201660 -0.211785E-07  0.390E-04   11.14       4.3  T
   4  -3772.1201661 -0.126472E-06  0.107E-04   11.14      15.7  T
     SCC iter.                  ...        5 min,  1.629 sec
     gradient                   ...        4 min, 34.500 sec
 * total energy  : -3716.1985624 Eh     change    :  -0.7222410E-03 Eh
   gradient norm :     0.0259594 Eh/a0  converged?    E=F G=F D=F
   time step     :     0.6484356 fs     power     :   0.1068284E-07
   step length   :     0.1012170 a0     speed     :   0.3775737E-02

........................................................................
.............................. CYCLE   58 ..............................
........................................................................

 iter      E             dE          RMSdq      gap      omega  full diag
   1  -3772.1392466 -0.377214E+04  0.338E-03   11.14       0.0  T
   2  -3772.1392480 -0.143271E-05  0.198E-03   11.14       1.0  T
   3  -3772.1392481 -0.450200E-07  0.341E-04   11.14       4.9  T
   4  -3772.1392481 -0.761256E-07  0.916E-05   11.14      18.4  T
     SCC iter.                  ...        4 min, 58.332 sec
     gradient                   ...        4 min, 32.768 sec
 * total energy  : -3716.1994948 Eh     change    :  -0.9323949E-03 Eh
   gradient norm :     0.0259176 Eh/a0  converged?    E=F G=F D=F
   time step     :     0.7132792 fs     power     :   0.1412876E-07
   step length   :     0.1079957 a0     speed     :   0.3662369E-02

........................................................................
.............................. CYCLE   59 ..............................
........................................................................

 iter      E             dE          RMSdq      gap      omega  full diag
   1  -3772.1439346 -0.377214E+04  0.372E-03   11.15       0.0  T
   2  -3772.1439354 -0.753841E-06  0.218E-03   11.15       1.0  T
   3  -3772.1439355 -0.611872E-07  0.290E-04   11.15       5.8  T
   4  -3772.1439356 -0.862697E-07  0.986E-05   11.15      17.1  T
     SCC iter.                  ...        4 min, 58.380 sec
     gradient                   ...        4 min, 32.660 sec
 * total energy  : -3716.2006938 Eh     change    :  -0.1198974E-02 Eh
   gradient norm :     0.0224669 Eh/a0  converged?    E=F G=F D=F
   time step     :     0.7846071 fs     power     :   0.1646833E-07
   step length   :     0.1177108 a0     speed     :   0.3628936E-02

........................................................................
.............................. CYCLE   60 ..............................
........................................................................

 iter      E             dE          RMSdq      gap      omega  full diag
   1  -3772.1291280 -0.377213E+04  0.436E-03   11.15       0.0  T
   2  -3772.1291294 -0.142658E-05  0.254E-03   11.15       1.0  T
   3  -3772.1291295 -0.862869E-07  0.404E-04   11.15       4.2  T
   4  -3772.1291297 -0.133532E-06  0.119E-04   11.15      14.2  T
     SCC iter.                  ...        4 min, 57.699 sec
     gradient                   ...        4 min, 33.013 sec
 * total energy  : -3716.2019355 Eh     change    :  -0.1241728E-02 Eh
   gradient norm :     0.0200723 Eh/a0  converged?    E=F G=F D=F
   time step     :     0.8630678 fs     power     :   0.1378074E-07
   step length   :     0.1304764 a0     speed     :   0.3656808E-02

........................................................................
.............................. CYCLE   61 ..............................
........................................................................

 iter      E             dE          RMSdq      gap      omega  full diag
   1  -3772.1001060 -0.377210E+04  0.452E-03   11.16       0.0  T
   2  -3772.1001085 -0.248055E-05  0.260E-03   11.16       1.0  T
   3  -3772.1001086 -0.958989E-07  0.504E-04   11.16       3.3  T
   4  -3772.1001087 -0.141870E-06  0.122E-04   11.16      13.8  T
     SCC iter.                  ...        4 min, 57.626 sec
     gradient                   ...        4 min, 37.599 sec
 * total energy  : -3716.2030973 Eh     change    :  -0.1161728E-02 Eh
   gradient norm :     0.0228582 Eh/a0  converged?    E=F G=F D=F
   time step     :     0.9493746 fs     power     :   0.1160501E-07
   step length   :     0.1437532 a0     speed     :   0.3662647E-02

........................................................................
.............................. CYCLE   62 ..............................
........................................................................

 iter      E             dE          RMSdq      gap      omega  full diag
   1  -3772.0745698 -0.377207E+04  0.424E-03   11.16       0.0  T
   2  -3772.0745715 -0.172773E-05  0.243E-03   11.16       1.0  T
   3  -3772.0745716 -0.903697E-07  0.447E-04   11.16       3.8  T
   4  -3772.0745717 -0.133764E-06  0.119E-04   11.16      14.1  T
     SCC iter.                  ...        4 min, 57.927 sec
     gradient                   ...        4 min, 35.898 sec
 * total energy  : -3716.2044996 Eh     change    :  -0.1402318E-02 Eh
   gradient norm :     0.0215380 Eh/a0  converged?    E=F G=F D=F
   time step     :     1.0443120 fs     power     :   0.1425651E-07
   step length   :     0.1579047 a0     speed     :   0.3657462E-02

........................................................................
.............................. CYCLE   63 ..............................
[...]
  3281   6 C     3283   6 C                                       1.5378248
  3283   6 C     3284   6 C                                       1.5332612
  3284   6 C     3285   6 C                                       1.5279560
  3284   6 C     3286   6 C                                       1.5346670
  3286   6 C     3287   6 C                                       1.5333853
  3287   6 C     3288   6 C                                       1.5266539
  3287   6 C     3289   6 C                                       1.5387164
  3289   6 C     3290   6 C                                       1.5331930
  3290   6 C     3291   6 C                                       1.5281289
  3292   6 C     3293   6 C                                       1.5339892
  3293   6 C     3294   6 C                                       1.5264575
  3293   6 C     3295   6 C                                       1.5343349
  3295   6 C     3296   6 C                                       1.5347751
  3296   6 C     3297   6 C                                       1.5274632
  3296   6 C     3298   6 C                                       1.5342716
  3298   6 C     3299   6 C                                       1.5320433
  3299   6 C     3300   6 C                                       1.5300449
  3299   6 C     3301   6 C                                       1.5359831
  3301   6 C     3302   6 C                                       1.5342727
  3302   6 C     3303   6 C                                       1.5279143
  3302   6 C     3304   6 C                                       1.5371957
  3304   6 C     3305   6 C                                       1.5365991
  3305   6 C     3306   6 C                                       1.5270584
  3305   6 C     3307   6 C                                       1.5346153
  3307   6 C     3308   6 C                                       1.5364502
  3308   6 C     3309   6 C                                       1.5290487
  3308   6 C     3310   6 C                                       1.5351671
  3311   6 C     3312   6 C                                       1.5304108
  3311   6 C     3313   6 C                                       1.5353325
  3313   6 C     3314   6 C                                       1.5317124
  3314   6 C     3315   6 C                                       1.5291542
  3314   6 C     3316   6 C                                       1.5359340
  3316   6 C     3317   6 C                                       1.5330977
  3317   6 C     3318   6 C                                       1.5279676
  3317   6 C     3319   6 C                                       1.5355747
  3319   6 C     3320   6 C                                       1.5325102
  3320   6 C     3321   6 C                                       1.5269129
  3320   6 C     3322   6 C                                       1.5351862
  3323   6 C     3324   6 C                                       1.5277682
  3323   6 C     3325   6 C                                       1.5332375
  3325   6 C     3326   6 C                                       1.5335903
  3326   6 C     3327   6 C                                       1.5296630
  3328   6 C     3329   6 C                                       1.5330020
  3329   6 C     3330   6 C                                       1.5278732
  3329   6 C     3331   6 C                                       1.5363315
  3331   6 C     3332   6 C                                       1.5321710
  3332   6 C     3333   6 C                                       1.5293766
  3332   6 C     3334   6 C                                       1.5375145
  3334   6 C     3335   6 C                                       1.5357560
  3335   6 C     3336   6 C                                       1.5270310
  3337   6 C     3338   6 C                                       1.5372721
  3338   6 C     3339   6 C                                       1.5257793
  3338   6 C     3340   6 C                                       1.5352751
  3341   6 C     3342   6 C                                       1.5289125
  3341   6 C     3343   6 C                                       1.5359351
  3343   6 C     3344   6 C                                       1.5310642
  3344   6 C     3345   6 C                                       1.5307897
  3344   6 C     3346   6 C                                       1.5384617
  3347   6 C     3348   6 C                                       1.5303403
  3347   6 C     3349   6 C                                       1.5320221
  3349   6 C     3350   6 C                                       1.5360888
  3350   6 C     3351   6 C                                       1.5286332
  3350   6 C     3352   6 C                                       1.5319730
  3352   6 C     3353   6 C                                       1.5276913
  3353   6 C     3354   6 C                                       1.5231162
  3265   6 C     3355   1 H                                       1.0868914
  3265   6 C     3356   1 H                                       1.0882111
  3265   6 C     3357   1 H                                       1.0877938
  3354   6 C     3358   1 H                                       1.0876514
  3354   6 C     3359   1 H                                       1.0886947
  3354   6 C     3360   1 H                                       1.0881852
  3352   6 C     3361   1 H                                       1.0922947
  3352   6 C     3362   1 H                                       1.0931558
  3349   6 C     3363   1 H                                       1.0938883
  3349   6 C     3364   1 H                                       1.0919767
  3347   6 C     3365   1 H                                       1.0968636
  3348   6 C     3366   1 H                                       1.0863530
  3348   6 C     3367   1 H                                       1.0879506
  3348   6 C     3368   1 H                                       1.0877384
  3346   6 C     3369   1 H                                       1.0937602
  3346   6 C     3370   1 H                                       1.0945391
  3343   6 C     3371   1 H                                       1.0885920
  3343   6 C     3372   1 H                                       1.0935284
  3350   6 C     3373   1 H                                       1.0950570
  3351   6 C     3374   1 H                                       1.0882130
  3351   6 C     3375   1 H                                       1.0859047
  3351   6 C     3376   1 H                                       1.0881863
  3344   6 C     3377   1 H                                       1.0935846
  3345   6 C     3378   1 H                                       1.0885976
  3345   6 C     3379   1 H                                       1.0864990
  3345   6 C     3380   1 H                                       1.0884375
  3341   6 C     3381   1 H                                       1.0941749
  3342   6 C     3382   1 H                                       1.0881759
  3342   6 C     3383   1 H                                       1.0867842
  3342   6 C     3384   1 H                                       1.0885039
  3340   6 C     3385   1 H                                       1.0912705
  3340   6 C     3386   1 H                                       1.0907831
  3338   6 C     3387   1 H                                       1.0985375
  3339   6 C     3388   1 H                                       1.0875142
  3339   6 C     3389   1 H                                       1.0863326
  3339   6 C     3390   1 H                                       1.0886268
  3337   6 C     3391   1 H                                       1.0932307
  3337   6 C     3392   1 H                                       1.0928608
  3335   6 C     3393   1 H                                       1.0923799
  3336   6 C     3394   1 H                                       1.0884302
  3336   6 C     3395   1 H                                       1.0881174
  3336   6 C     3396   1 H                                       1.0862340
  3334   6 C     3397   1 H                                       1.0923763
  3334   6 C     3398   1 H                                       1.0942708
  3332   6 C     3399   1 H                                       1.0935339
  3333   6 C     3400   1 H                                       1.0869043
  3333   6 C     3401   1 H                                       1.0882030
  3333   6 C     3402   1 H                                       1.0887519
  3331   6 C     3403   1 H                                       1.0909003
  3331   6 C     3404   1 H                                       1.0931867
  3329   6 C     3405   1 H                                       1.0943822
  3330   6 C     3406   1 H                                       1.0881957
  3330   6 C     3407   1 H                                       1.0881313
  3330   6 C     3408   1 H                                       1.0869915
  3328   6 C     3409   1 H                                       1.0909716
  3328   6 C     3410   1 H                                       1.0916642
  3326   6 C     3411   1 H                                       1.0932239
  3327   6 C     3412   1 H                                       1.0888714
  3327   6 C     3413   1 H                                       1.0877523
  3327   6 C     3414   1 H                                       1.0880681
  3325   6 C     3415   1 H                                       1.0940823
  3325   6 C     3416   1 H                                       1.0933187
  3323   6 C     3417   1 H                                       1.0949083
  3324   6 C     3418   1 H                                       1.0884861
  3324   6 C     3419   1 H                                       1.0886750
  3324   6 C     3420   1 H                                       1.0869533
  3322   6 C     3421   1 H                                       1.0921379
  3322   6 C     3422   1 H                                       1.0920062
  3320   6 C     3423   1 H                                       1.0936380
  3321   6 C     3424   1 H                                       1.0876687
  3321   6 C     3425   1 H                                       1.0877869
  3321   6 C     3426   1 H                                       1.0871986
  3319   6 C     3427   1 H                                       1.0924657
  3319   6 C     3428   1 H                                       1.0934499
  3317   6 C     3429   1 H                                       1.0941271
  3318   6 C     3430   1 H                                       1.0881590
  3318   6 C     3431   1 H                                       1.0869532
  3318   6 C     3432   1 H                                       1.0864051
  3316   6 C     3433   1 H                                       1.0919127
  3316   6 C     3434   1 H                                       1.0929347
  3314   6 C     3435   1 H                                       1.0920925
  3315   6 C     3436   1 H                                       1.0881761
  3315   6 C     3437   1 H                                       1.0888876
  3315   6 C     3438   1 H                                       1.0868418
  3313   6 C     3439   1 H                                       1.0920088
  3313   6 C     3440   1 H                                       1.0940367
  3311   6 C     3441   1 H                                       1.0931664
  3312   6 C     3442   1 H                                       1.0883529
  3312   6 C     3443   1 H                                       1.0879942
  3312   6 C     3444   1 H                                       1.0883007
  3310   6 C     3445   1 H                                       1.0907702
  3310   6 C     3446   1 H                                       1.0930017
  3308   6 C     3447   1 H                                       1.0920553
  3309   6 C     3448   1 H                                       1.0885950
  3309   6 C     3449   1 H                                       1.0881579
  3309   6 C     3450   1 H                                       1.0873548
  3307   6 C     3451   1 H                                       1.0935653
  3307   6 C     3452   1 H                                       1.0931698
  3305   6 C     3453   1 H                                       1.0929321
  3306   6 C     3454   1 H                                       1.0867626
  3306   6 C     3455   1 H                                       1.0886307
  3306   6 C     3456   1 H                                       1.0871091
  3304   6 C     3457   1 H                                       1.0930677
  3304   6 C     3458   1 H                                       1.0929951
  3302   6 C     3459   1 H                                       1.0936692
  3303   6 C     3460   1 H                                       1.0883812
  3303   6 C     3461   1 H                                       1.0864942
  3303   6 C     3462   1 H                                       1.0886069
  3301   6 C     3463   1 H                                       1.0922195
  3301   6 C     3464   1 H                                       1.0942086
  3299   6 C     3465   1 H                                       1.0938610
  3300   6 C     3466   1 H                                       1.0886851
  3300   6 C     3467   1 H                                       1.0868985
  3300   6 C     3468   1 H                                       1.0884364
  3298   6 C     3469   1 H                                       1.0906202
  3298   6 C     3470   1 H                                       1.0925826
  3296   6 C     3471   1 H                                       1.0926163
  3297   6 C     3472   1 H                                       1.0879225
  3297   6 C     3473   1 H                                       1.0875597
  3297   6 C     3474   1 H                                       1.0882920
  3295   6 C     3475   1 H                                       1.0917702
  3295   6 C     3476   1 H                                       1.0926329
  3293   6 C     3477   1 H                                       1.0955051
  3294   6 C     3478   1 H                                       1.0887176
  3294   6 C     3479   1 H                                       1.0874991
  3294   6 C     3480   1 H                                       1.0875754
  3292   6 C     3481   1 H                                       1.0902381
  3292   6 C     3482   1 H                                       1.0924129
  3290   6 C     3483   1 H                                       1.0949330
  3291   6 C     3484   1 H                                       1.0872930
  3291   6 C     3485   1 H                                       1.0886226
  3291   6 C     3486   1 H                                       1.0884930
  3289   6 C     3487   1 H                                       1.0934169
  3289   6 C     3488   1 H                                       1.0931166
  3287   6 C     3489   1 H                                       1.0931472
  3288   6 C     3490   1 H                                       1.0869432
  3288   6 C     3491   1 H                                       1.0876189
  3288   6 C     3492   1 H                                       1.0884589
  3286   6 C     3493   1 H                                       1.0946800
  3286   6 C     3494   1 H                                       1.0948449
  3284   6 C     3495   1 H                                       1.0937146
  3285   6 C     3496   1 H                                       1.0860304
  3285   6 C     3497   1 H                                       1.0887584
  3285   6 C     3498   1 H                                       1.0885677
  3283   6 C     3499   1 H                                       1.0920707
  3283   6 C     3500   1 H                                       1.0935996
  3281   6 C     3501   1 H                                       1.0925617
  3282   6 C     3502   1 H                                       1.0886481
  3282   6 C     3503   1 H                                       1.0870404
  3282   6 C     3504   1 H                                       1.0888199
  3280   6 C     3505   1 H                                       1.0909033
  3280   6 C     3506   1 H                                       1.0932250
  3278   6 C     3507   1 H                                       1.0938452
  3279   6 C     3508   1 H                                       1.0880440
  3279   6 C     3509   1 H                                       1.0881071
  3279   6 C     3510   1 H                                       1.0878095
  3277   6 C     3511   1 H                                       1.0909669
  3277   6 C     3512   1 H                                       1.0919694
  3275   6 C     3513   1 H                                       1.0933082
  3276   6 C     3514   1 H                                       1.0869951
  3276   6 C     3515   1 H                                       1.0888274
  3276   6 C     3516   1 H                                       1.0879411
  3274   6 C     3517   1 H                                       1.0936613
  3274   6 C     3518   1 H                                       1.0932702
  3272   6 C     3519   1 H                                       1.0926691
  3273   6 C     3520   1 H                                       1.0885084
  3273   6 C     3521   1 H                                       1.0869847
  3273   6 C     3522   1 H                                       1.0867912
  3271   6 C     3523   1 H                                       1.0934931
  3271   6 C     3524   1 H                                       1.0937899
  3269   6 C     3525   1 H                                       1.0925845
  3270   6 C     3526   1 H                                       1.0883848
  3270   6 C     3527   1 H                                       1.0867873
  3270   6 C     3528   1 H                                       1.0882806
  3268   6 C     3529   1 H                                       1.0904837
  3268   6 C     3530   1 H                                       1.0929014
  3266   6 C     3531   1 H                                       1.0949692
  3267   6 C     3532   1 H                                       1.0879978
  3267   6 C     3533   1 H                                       1.0880227
  3267   6 C     3534   1 H                                       1.0880261
  3353   6 C     3535   1 H                                       1.0901241
  3353   6 C     3536   1 H                                       1.0918458

 * 2 distinct bonds (by element types)

   Z      Z             #   av. dist./Å        max./Å        min./Å
   1 H    6 C        2366     1.0902917     1.0990322     1.0833097
   6 C    6 C        1115     1.5324237     1.5399892     1.5223627


optimized geometry written to: xtbopt.xyz


           -------------------------------------------------
          | TOTAL ENERGY            -3716.272780318515 Eh   |
          | GRADIENT NORM               0.000691452082 Eh/α |
          | HOMO-LUMO GAP              11.259208067461 eV   |
           -------------------------------------------------

------------------------------------------------------------------------
 * finished run on 2024/06/27 at 21:44:43.332     
------------------------------------------------------------------------
 total:
 * wall-time:     4 d,  5 h,  5 min, 23.915 sec
 *  cpu-time:    22 d,  9 h,  1 min, 36.192 sec
 * ratio c/w:     5.312 speedup
 SCF:
 * wall-time:     0 d,  0 h,  8 min, 44.226 sec
 *  cpu-time:     0 d,  0 h, 45 min, 47.488 sec
 * ratio c/w:     5.241 speedup
 ANC optimizer:
 * wall-time:     4 d,  4 h, 55 min, 12.071 sec
 *  cpu-time:    22 d,  8 h, 14 min,  4.092 sec
 * ratio c/w:     5.313 speedup

