3536
 energy: -3716.272780318515 gnorm: 0.000691452082 xtb: 6.6.1 (8d0f1dd)
C           52.52101397303864       69.08387784063864       70.81569511612045
C           51.36594012470831       68.27216187669278       71.39808838569793
C           51.04579887488576       68.76645405453775       72.80896998165856
C           51.68518810296009       66.77244456180567       71.44511805235689
C           51.99899342643742       66.12041481602449       70.09412226688630
C           50.82794673526917       66.28390241392898       69.12482953683180
C           52.30236644407388       64.62268679794485       70.25135111107824
C           53.44559410531978       64.24193556457942       71.20007792668108
C           54.72492590570220       65.01740102722772       70.88486055795136
C           53.76198727947754       62.74065518918177       71.09973654205416
C           52.61648353129182       61.76427486197118       71.38711508439579
C           51.99365892715590       62.01772677964578       72.76039049896698
C           53.11110461157739       60.30896063372034       71.34033383138465
C           53.70817045818271       59.81587756448048       70.01585451988301
C           52.69849481141289       59.92979817800839       68.87509930392169
C           54.16001497519977       58.35078638599925       70.13888550764869
C           55.41379130035591       58.10820618406937       70.98654685456449
C           56.65329187215823       58.68796070067017       70.30775662168944
C           55.65294609029942       56.60913700832717       71.21264306112325
C           54.69129960861378       55.87638999621289       72.15753303532739
C           54.80809028740910       56.41837676188074       73.58004350316671
C           55.02675864188483       54.37800676620692       72.09692340998339
C           54.16730483257120       53.43319766476753       72.94738117435335
C           54.82693311752089       52.05463110004893       72.97145206192727
C           52.73285235390374       53.34228756803883       72.41711170986748
C           51.75799196691897       52.62197483471702       73.36897110838308
C           51.34560448699189       51.26159439508680       72.80584902259289
C           50.50774109689023       53.47133573282888       73.64010096269939
C           50.75973301738455       54.68613065689991       74.54247626343883
C           50.87337143742234       54.25417742093713       76.00486746461908
C           49.63552464919789       55.72560652838497       74.41448522904612
C           49.59060500076676       56.49538784877895       73.09002062158331
C           50.83000837050986       57.37200019047425       72.91291618374356
C           48.35795531631491       57.40787510227372       73.00982246373671
C           46.97936824946546       56.74109472705752       73.10117639812530
C           46.85105861749746       55.57609640084641       72.12109302696324
C           45.87204741302868       57.76381017238957       72.79796388635465
C           45.74309032281325       58.92591532863422       73.78997574552824
C           45.16940920685572       58.44032567879859       75.12115759619250
C           44.84338485529539       60.03756987133013       73.22720898016041
C           45.44479219457133       60.86855246283251       72.08471687904134
C           46.62023161974073       61.71351284063773       72.57679504859729
C           44.37096556222965       61.77779071379465       71.45365000531214
C           43.80295497188642       61.32072216544181       70.10008620040810
C           43.10432020656630       59.96532147190163       70.20710316261845
C           44.84962127440399       61.26003296676218       68.98135740946863
C           45.48184978176130       62.59189576434036       68.55886821845736
C           44.49264236449114       63.45325594060931       67.77737281262166
C           46.72307221395594       62.31567868847196       67.69749923461009
C           47.96014450208126       61.93138055272796       68.52221184945486
C           48.76679906034192       63.17983786978775       68.87189041800664
C           48.84627953266349       60.92109972940043       67.78261802864587
C           48.29992561597307       59.48885251156118       67.78455701669269
C           48.37366287494092       58.88200162197918       69.18646515278974
C           49.08523029430182       58.57812646470239       66.82989933569613
C           49.04780762736031       58.93649913059162       65.34005479214375
C           47.61581546881997       59.00327403431346       64.80976827302308
C           49.83345067564262       57.90715341801076       64.51233309486175
C           51.30336252409672       57.70547689440885       64.89968673527392
C           52.07692027519136       59.02067716839647       64.86095518138873
C           51.95695271470095       56.67721624230249       63.96168114959100
C           53.13296225513586       55.93449423736822       64.60825422186404
C           53.94766674663297       55.19765463657618       63.54625760325693
C           52.65209612723110       54.95839697714996       65.70032470917471
C           53.15380747807572       55.29063629199611       67.11064778297910
C           54.66362369151120       55.07719754606993       67.19744752926007
C           52.46599326549171       54.40696494742901       68.15986416684730
C           50.98764491101696       54.71726147873255       68.43693918333703
C           50.87130767185182       55.93456439289706       69.34845641854537
C           50.32774335869958       53.48169563951875       69.06530009100513
C           48.80190460477625       53.52940609695288       69.22882474471463
C           48.37293290408746       52.43178571812088       70.20345758790977
C           48.09462678992561       53.34731483109113       67.88045117633389
C           46.60179945631156       53.71523681088308       67.88830572570629
C           45.88354939323200       53.00337020150094       66.74404898518931
C           46.43240514496319       55.23568290951515       67.79307773617516
C           44.99365539838197       55.77381672811501       67.79003177640537
C           45.04375758713049       57.29390156161640       67.65168362458955
C           44.23918954609178       55.36244282481012       69.05909936099785
C           42.77647458848928       55.82164887197510       69.16107034949515
C           42.27439930619774       55.53200830779959       70.57611827419714
C           41.90772051022351       55.11837484985215       68.11106270386611
C           40.47433493630989       55.65153283383946       67.96058983712365
C           39.64152915406473       54.63332536242710       67.18119021832614
C           40.47468948367642       57.01406170535912       67.25812164219555
C           39.12828421068316       57.74745942175107       67.21705957684821
C           39.27689666198318       59.03335475380202       66.40269637699073
C           38.53802997162533       58.03517313824589       68.60588181035213
C           39.44914873018890       58.80822537035660       69.55750480404534
C           38.73967534258186       59.12082176958810       70.86993366385627
H           52.69149764200397       68.83506400949838       69.77164105051111
H           52.30313079239102       70.14849861935635       70.87762111728341
H           53.43740660119593       68.89244861007292       71.37067468426844
H           37.85517141074445       59.72963001136375       70.69313479081087
H           38.42676815092139       58.20344019957878       71.36514382119493
H           39.39975685747220       59.66430152538353       71.54255389818681
H           37.61448472811772       58.60500103134783       68.46771521691269
H           38.25793339034237       57.09057299266058       69.07881855305986
H           41.20131613203600       57.66528093443661       67.74530713554918
H           40.80943578177053       56.86778315046746       66.22721889902620
H           40.03335862347622       55.75955232147744       68.95424867304664
H           40.04644359341300       54.49698103474370       66.18013613682326
H           39.64798014062002       53.66924373919001       67.68597545094893
H           38.60775289910858       54.95681771376483       67.09212486179781
H           42.39265466598796       55.19090606693845       67.13571458368334
H           41.85989421433841       54.05731411170906       68.37195074809625
H           44.24871652486696       54.27391217528245       69.14680507628469
H           44.78329400966110       55.76511618160745       69.91686151142261
H           38.40418786903712       57.11481867069844       66.69038066106069
H           38.33337672928715       59.57400381985497       66.36428370313109
H           40.02968223213729       59.68697777400362       66.83538206525232
H           39.57732430665875       58.79744485144782       65.38461239736975
H           42.73326059553214       56.90264283736223       69.00895004943055
H           42.89807983134552       56.03944527409386       71.30955687760724
H           41.25271789647512       55.87613803834298       70.71398166492652
H           42.30552054133673       54.46329579356970       70.78185920624088
H           44.48065098218030       55.37103103783339       66.91212518886489
H           44.05175191351690       57.70514216715714       67.49839522580660
H           45.46865657017111       57.74537412423020       68.54539111704433
H           45.65689581342478       57.57606249605730       66.79970055279526
H           46.96595932551596       55.69617677130362       68.62804349599789
H           46.91622850278535       55.57329522980672       66.87173850365700
H           46.16690572162317       53.36791526279973       68.82940761172098
H           46.06506371553276       51.93065040551709       66.78907877677632
H           44.80920087640286       53.16169393502752       66.79818340426949
H           46.23904075840663       53.37397952163141       65.78588083110928
H           48.59567766017209       53.94965722006673       67.11991729990298
H           48.20368538509883       52.30037667693571       67.58508726275868
H           48.51718547527582       54.49312263786454       69.65817162072827
H           48.81959056342590       52.58879252124844       71.18243609607671
H           47.29362482636789       52.41444463810296       70.33128491941359
H           48.68737254197059       51.45550206385425       69.83725716974354
H           50.56753814293167       52.60675139065175       68.45449364614353
H           50.77974461023671       53.32456624215806       70.04774746646558
H           50.48365915204084       54.94434928453302       67.49270175747895
H           51.39877864130754       56.78281510833028       68.91957810708622
H           49.83418847892875       56.22354832580378       69.49177419143079
H           51.30616572963881       55.71823883717398       70.32211993815095
H           52.55611390326620       53.37253962335885       67.82473006718398
H           53.01046363441818       54.49007700649296       69.10450246477622
H           52.93908859251798       56.34248909809190       67.32925878338662
H           55.19068142780556       55.68270747546326       66.46633070767440
H           55.03352777025187       55.34200502315063       68.18639862913224
H           54.90445070920088       54.03285094713465       67.00913251747960
H           51.56130489546172       54.94263799805405       65.70693810798224
H           52.98201217459105       53.94580351330197       65.45537143621999
H           53.78696542792822       56.68264189360183       65.06544711294272
H           54.78459481522926       54.67338736011948       64.00283678729794
H           53.32857702330176       54.47064998013171       63.02592839368311
H           54.34597427395160       55.89537417730737       62.81299617726331
H           51.21381402441223       55.94430666062908       63.63912188563290
H           52.30600367331342       57.19372790918274       63.06438607503412
H           51.34076596222366       57.30651236739788       65.91673783130487
H           51.73392072707246       59.70627203532054       65.63175711808307
H           53.13814531468936       58.84531199525038       65.02146390716281
H           51.95583425379887       59.50076285085625       63.89197649437524
H           49.32354878151764       56.94313162338695       64.59102977674902
H           49.79299241073923       58.20896415842500       63.46207952134879
H           49.50701233832797       59.91800991973616       65.19312574708447
H           47.06932074150529       59.83085509767830       65.25531623109073
H           47.61589717290020       59.14466957735066       63.73054642221884
H           47.08431712158860       58.07966648466051       65.03375800913143
H           50.12430348561659       58.57733334794950       67.16264602447482
H           48.70395581578867       57.55925383531468       66.94247291158447
H           47.24928331666188       59.50522330178116       67.48238552920952
H           47.97387020223123       57.86976403953393       69.18022619544784
H           49.40565965913593       58.84063523448313       69.52984831845970
H           47.80370998583404       59.46300128068440       69.90765576183109
H           48.96414523780039       61.26760629622875       66.75456910029567
H           49.83762191602874       60.91212475856246       68.24133971500062
H           47.62959967031507       61.48492933771158       69.46341827377856
H           49.19657747203784       63.62198056124414       67.97573759716053
H           48.13278576353378       63.92532897534625       69.34831752001351
H           49.57768525480763       62.93486009531975       69.55456297927030
H           46.47640603228394       61.51885665813690       66.99341822537264
H           46.95947556629653       63.20335216707064       67.10656689897857
H           45.79360511883402       63.14874707940267       69.44819500036409
H           44.23153255452741       62.96379709916550       66.84137542148299
H           43.58117565882374       63.62442354061400       68.34521272798392
H           44.93004432120711       64.42191944489285       67.54361982418030
H           45.64304781914517       60.57609987443301       69.28292210015849
H           44.37306907128717       60.82232271775343       68.10194474765193
H           43.04154880744307       62.05884828295972       69.81952744636372
H           43.81501895019356       59.17658702570881       70.43982738590624
H           42.34080845219652       59.98461336778223       70.98182357700857
H           42.62170301045850       59.71970701973734       69.26346486225411
H           43.53665945046237       61.88141798056014       72.15234153613279
H           44.78591723103623       62.77840886665726       71.31999549373771
H           45.82383496549843       60.18692425905569       71.32000123971399
H           46.29649784567552       62.39761335201506       73.35930260513580
H           47.41620288128377       61.08955469839355       72.97541312510249
H           47.03541516012384       62.29889005128772       71.75902824981274
H           43.91274303754833       59.58122217463324       72.88475501172442
H           44.58995459101715       60.72186333045554       74.04208166351142
H           46.73185529249147       59.34662853799601       73.98433962723338
H           45.79614052318471       57.66690178283179       75.55782935830582
H           45.10539843060378       59.26161867974056       75.83222551784712
H           44.16995385706749       58.03298700537771       74.97919576045074
H           46.05757420628277       58.16277057774620       71.79857211939525
H           44.91191704454656       57.24034036438189       72.76542717457423
H           46.83101294466773       56.35360374937105       74.11368257162542
H           47.05780404769239       55.91268283386056       71.10742361019265
H           47.54026293398775       54.77356946768523       72.36651535233968
H           45.84252006204662       55.16760410278741       72.14690368471959
H           48.44305649264246       58.14405051826251       73.81244050952201
H           48.40708563529508       57.94912490868913       72.06123113897151
H           49.55634389509073       55.78782726833670       72.25783817103782
H           50.76463934976832       57.92151159569970       71.97614524245448
H           50.91117429799509       58.08959357180996       73.72761038110303
H           51.74079290933977       56.78132833576156       72.89346421279586
H           48.68585820500498       55.20753745991143       74.56274710655464
H           49.73988735215401       56.45243479953838       75.22511311187409
H           51.70771672313317       55.14880868307881       74.25681258251889
H           51.12405963113830       55.10369570642157       76.63719555339323
H           49.92997126865560       53.83674874088951       76.35278995431885
H           51.64624946505479       53.50001073990235       76.13271161528033
H           50.11108843096606       53.80526597539566       72.67969403802221
H           49.74234017571954       52.84645045603764       74.10897383555863
H           52.26290699397997       52.44676383915702       74.32481501097848
H           50.69913648530111       50.73408464006480       73.50532253856400
H           50.80674084805798       51.38322669661869       71.86884404460395
H           52.21927487033508       50.64194477261558       72.61921327582033
H           52.36611836057701       54.35249463860215       72.23490800973896
H           52.75127787499793       52.82794708254252       71.45349976376993
H           54.13733617392808       53.80720321743054       73.97618823515047
H           55.84018358619488       52.12351696747128       73.36249850113779
H           54.27036357228536       51.36644791809553       73.60295960870674
H           54.87425239882930       51.63929988885992       71.96636693650680
H           54.96543946725068       54.04787468368652       71.05592422600817
H           56.06670377643559       54.25951332828733       72.41392077600194
H           53.66627943394808       56.02790376168033       71.80599217356249
H           54.58451099663923       57.48155563868569       73.60902157315886
H           54.11235116084278       55.92099895715150       74.25148045889938
H           55.81714793026439       56.26864841813587       73.95986905040904
H           55.62704512706491       56.11378099915304       70.23793430458427
H           56.66229814612208       56.48612327422489       71.61215941762228
H           55.29637479934501       58.59740435397994       71.95714891861715
H           57.53746701069889       58.52742352273906       70.92112364536658
H           56.82031820128570       58.20144578423938       69.34890973283356
H           56.55027583618195       59.75590893136844       70.14462626741529
H           53.33016486718950       57.77542071319122       70.55369348278381
H           54.35687769172569       57.96231744615614       69.13596298174318
H           54.57539419571738       60.42990442544345       69.76214761351903
H           51.79683620123378       59.36701092625457       69.11053237114668
H           52.42143582494788       60.96545465846245       68.69592940332424
H           53.11957364322362       59.53175265627410       67.95394201641183
H           53.85589169924445       60.18828519053149       72.13036136568573
H           52.26862666471420       59.66004015067335       71.59313736685536
H           51.83571869030061       61.89264817258091       70.63221684037322
H           51.23750525315055       61.26578538475340       72.97797813751926
H           52.75428006153347       61.97088533051980       73.53774830309955
H           51.51698768125625       62.99355054446035       72.80468853730947
H           54.13022549127660       62.55216730668761       70.09037286460153
H           54.57677010498004       62.51976287693306       71.79559447580465
H           53.15181402066916       64.47147147095626       72.22883955931843
H           55.53293633407662       64.69394843679237       71.53748903458812
H           55.03194530387265       64.84023800286917       69.85649547216299
H           54.58974253493027       66.08576773766345       71.02801253039482
H           51.38868864016649       64.13161724100347       70.59213469837377
H           52.54159010638074       64.22564997045031       69.26112337920911
H           52.87428984298580       66.60556499303893       69.65582803634283
H           50.69771879957005       67.32420924780291       68.83718062997151
H           50.99769582566896       65.70463570110049       68.22015050498729
H           49.90365535519889       65.93465635662828       69.57977689879537
H           52.53635951348020       66.63600381789631       72.11498739492268
H           50.83190256175210       66.25175306085654       71.88968917474479
H           50.47777469490155       68.43201759216466       70.77814956568248
H           50.77639678856334       69.82059160389342       72.79531186576106
H           50.21468134698868       68.20741973240644       73.23373394436184
H           51.90925658015635       68.64317413697206       73.46005815823831
H           40.34388058899906       58.22263886538087       69.77218385887087
H           39.76186584488500       59.74438834652349       69.09284556545637
C           73.17945258670714       45.21910303093902       56.04513543601006
C           72.71944381703953       46.55720509389804       55.46587689700475
C           71.19543786926394       46.60526173341151       55.41214831976081
C           73.34704795813788       46.75114644409082       54.08039411659210
C           73.06798814761640       48.09227007274197       53.38591334249421
C           73.56572620387330       48.00941470192712       51.94213209261488
C           73.74006908224486       49.24869864985384       54.13585363489717
C           73.39585964499213       50.66020255429410       53.63570774446094
C           74.37536626313567       51.66138776291688       54.24720277920106
C           71.94856211621187       51.01562105849877       53.99137095213607
C           71.42409477764642       52.36044614956058       53.46457618988226
C           69.98504828911268       52.53837550676260       53.94726738974011
C           71.52770968081107       52.40630919713558       51.93385932473245
C           70.79401621661147       53.54726529211783       51.21628788665840
C           70.91250875844146       53.32052221654366       49.70798724390303
C           71.34883564419887       54.91896167756095       51.61471377784248
C           70.50715834842913       56.11730425380745       51.15181405024869
C           71.34031654245580       57.39424591509944       51.26513510193196
C           69.21904973345896       56.25041023765627       51.97405251708989
C           68.15880357615642       57.16485839154993       51.33165765282646
C           67.70156175182350       58.23449149433122       52.32248260270028
C           66.93502496348692       56.37862400607579       50.84314933290804
C           67.20077258021948       55.39612040413767       49.69740610015381
C           67.48624901834097       56.14571869009289       48.39598899061243
C           65.99432011724636       54.46975616578260       49.48042072392747
C           65.80279758893523       53.36870665897398       50.52956842552390
C           66.88059508623088       52.29498400575062       50.38692177649520
C           64.42946005342496       52.69669495370017       50.38559611194993
C           63.20058689147810       53.55796011646886       50.69972442516617
C           63.20066966933163       54.05547733402824       52.14279455082934
C           61.92272645180066       52.74890765163608       50.41872328160903
C           60.72508420471235       53.60824929483278       49.98585627738969
C           59.42694835501636       52.82843597641808       50.17800019145981
C           60.91001501787879       54.03491642576605       48.52605298076411
C           59.88601164881912       55.01032393826608       47.92724070567768
C           60.32276767251914       55.29900220938113       46.49070671262678
C           59.79063578105460       56.28879499357698       48.76521231530894
C           58.89707350552014       57.41394776325465       48.22534025960534
C           59.09373094456988       58.65017499772114       49.10637592464914
C           57.40147753983771       57.04886830110910       48.19591252197853
C           56.85322495452508       56.47997866588547       46.88122457039194
C           57.03902695372084       57.46817654408850       45.72750773557327
C           55.34933150561155       56.17852537948820       46.99408617463166
C           54.89761952582369       55.17809337949140       48.06454460396962
C           55.64766148272659       53.85183036864488       47.96039580705393
C           53.39050615569359       54.90146636113784       47.93594079297613
C           52.45994176496070       56.09978698010151       48.15345360830784
C           52.61228553183660       56.64592027947010       49.57131536924582
C           50.99451218415869       55.70372861086281       47.90747716510945
C           50.59426469582105       55.53903151504706       46.43264605271136
C           50.47684661897532       56.89726248825792       45.74711548814641
C           49.26918899383060       54.76853608661451       46.34701674222337
C           48.76153424770312       54.41154899060491       44.93897797159678
C           47.46190768509521       53.62391683830391       45.08558813816373
C           49.82588685392913       53.62660965987082       44.16192953202240
C           49.38244724352415       52.89174599432739       42.88713352320924
C           50.58795521590823       52.10977760082572       42.36098786966820
C           48.83115085345415       53.83527941740706       41.80328929598490
C           47.60394593072251       53.30255369717072       41.05001105547954
C           47.89663630548964       51.99251462963953       40.31969138313391
C           47.10123897994564       54.34150073699082       40.03561525299679
C           46.33874529184141       55.52668993014542       40.64041888869241
C           44.95242973582501       55.10099014832188       41.11928030372086
C           46.20672541372008       56.65958691987099       39.61105394370104
C           45.96869556518369       58.04480273252231       40.24111581761645
C           44.78370375909696       58.74891172388167       39.57926826832799
C           47.21448672818758       58.93325580216595       40.12786557205652
C           48.45188200441797       58.42349798260025       40.88124216053004
C           48.29206482938222       58.63785440880795       42.38368160133505
C           49.69583413854427       59.14756997386421       40.35167021450456
C           51.04962330578725       58.61414658958898       40.84297615259450
C           52.13024127883099       59.63589832166220       40.49785299658898
C           51.35772849375048       57.25599729816846       40.20357552502758
C           52.56123079854148       56.49070327555827       40.77347040808082
C           52.90747454648091       55.35211342694054       39.81376536403326
C           52.26516991236105       55.94185835363631       42.17902003063965
C           53.36958219162950       56.08968986505046       43.23561121953770
C           53.69906213445945       57.56115354387196       43.49170356340776
C           54.65946259573680       55.32204426563606       42.91862161344169
C           54.56859584234148       53.78941317088408       42.85861775468783
C           53.88687196730526       53.20419647731974       44.09458270487671
C           55.97738260369541       53.17949875754704       42.75787740754431
C           56.75201856643912       53.46199105437734       41.46675505202179
C           56.16055201353203       52.67554772270584       40.29637495874775
C           58.23664007176830       53.08525038253566       41.59689533936055
C           59.04471550761750       53.83531983021306       42.66261587414530
C           58.97275742812420       55.34914817013817       42.48641324121685
C           60.50190418476291       53.34628751849662       42.69550573515842
C           61.33562907324693       53.64215112358680       41.45010120564739
C           62.78160367147748       53.19535453905690       41.63402785854191
H           74.26397631958963       45.18444669476936       56.12463486356992
H           72.75881446470378       45.06513799782719       57.03657710447735
H           72.85915676402087       44.39727181619491       55.40729911613012
H           63.23024173976754       53.69540955054322       42.48997031183241
H           62.83600569447987       52.12203688800279       41.80239800451521
H           63.37193702101570       53.43194895330122       40.75125471587720
H           60.99541514644269       53.81588744048283       43.55138801117272
H           60.50198294276414       52.26589034942734       42.86724755891273
H           58.30502133246981       52.01339006167549       41.80619175965363
H           58.70150391768316       53.25774099071685       40.62331896650978
H           56.69016955716645       54.52612815834420       41.22626906666713
H           55.10923808028113       52.90965183764715       40.15130300132514
H           56.68839132176973       52.90825032213113       39.37344343391367
H           56.24814229967456       51.60470394417921       40.47583031895048
H           56.55234790454393       53.55038230747202       43.60809507191143
H           55.89972635966270       52.09430173074197       42.86982063903357
H           55.05603146218836       55.69200219158942       41.97123072557508
H           55.39017904673588       55.57620590860567       43.69216489380045
H           58.62917610719719       53.59388064468579       43.64672733527838
H           59.65810614803713       55.83793768155413       43.17630683974145
H           59.23907564796515       55.63447714359258       41.47115602175106