3795
 energy: -5103.734053159119 gnorm: 0.000894659033 xtb: 6.6.1 (8d0f1dd)
C           99.35630490509106      104.95669047190428      124.66368137103927
C          100.74552595859285      105.40390609582106      125.05403924484328
C           99.11427094690264      103.44960573112054      124.75389139945956
C           99.67057104068387      102.70979576900859      123.54090232880598
H           99.57429776546600      103.06636810460897      125.66562830427613
H           98.04059649583216      103.26745305685287      124.81768545710722
C           99.44381204645350      101.19889799608616      123.64069342840084
H           99.18862414670737      103.08447614449231      122.63605799424205
H          100.74113387100959      102.90077217728481      123.45255066654404
C           99.97659893854306      100.50043562312095      122.40297498900941
H           99.93643100707713      100.80161775624585      124.52815455880453
H           98.37306969476653      100.99807209770670      123.71523337401943
N          100.99414145618434       99.66610464636558      122.62408500541906
O          101.26403487884483      104.75376643015517      126.07984763002909
O          101.31484031316299      106.33259091630865      124.52036577176217
H          102.11747903454525      105.19267011668485      126.37261205476612
H           99.15183428618489      105.33194452526986      123.65925074420180
H           98.68201905252140      105.46837485820005      125.35593501277579
C          101.68241069598088       98.93916725375652      121.57730461016429
H          101.36715878515412       99.54260245405369      123.55989056985455
C          103.17213032386407       98.89749913719820      121.88966161255802
H          101.28254682961720       97.92082197333538      121.50493096402029
H          101.48944454674752       99.44989725270767      120.63083357261094
C          103.99224186024038       98.13651719457540      120.84984213618807
H          103.53475190431466       99.92336440817834      121.96630889577490
H          103.29357629820399       98.42219035101731      122.86591279368318
C          105.36652760209520       97.74398282915675      121.39536555869711
H          103.46033539917400       97.22589793794607      120.56639433024402
H          104.11546459982145       98.73378057083193      119.94507458306164
C          106.12945700086848       98.92885199321302      121.98285180588924
H          105.23482875419668       96.98822846122862      122.17462126825511
H          105.95456440021282       97.29739857025005      120.59206721574594
C          107.47744717501615       98.52553570251293      122.56547494043718
H          106.28706302184438       99.68061652024235      121.20957273781522
H          105.54126936558569       99.37665579613927      122.78291966382700
N          108.52277188575798       98.52219457262707      121.56564940502219
H          107.75913362091666       99.22343763339671      123.36582983924058
H          107.42214635817272       97.52384699991062      123.00347761696237
C          109.71947993109583       97.98992622573166      121.80144767355345
H          108.38119186956520       99.11795862163261      120.75469793987646
O           99.51444070413910      100.70422660540676      121.28102229398029
C          110.78485844509488       98.33837979706239      120.78428467949725
C          111.04070976165397       99.85040601332226      120.87056234594890
H          111.68974235887883       97.78145901988560      121.03089970164619
H          110.46022931618764       98.06194336608324      119.78209117917031
C          112.40984733774920      100.26081469885094      120.33732256435884
H          110.25753786660539      100.37789224826479      120.32574902699355
H          110.97960065390963      100.15421447247356      121.91926455458996
C          112.59064432202078      101.78041616688935      120.45382687603914
H          113.18254596530525       99.75984587273990      120.92515354905224
H          112.52400465290680       99.95261381231560      119.29718415968051
C          114.05706690811152      102.14210691327781      120.42967992838632
H          112.05723289308159      102.28805092346917      119.65172923986403
H          112.18541496126483      102.12006073701583      121.40787220545243
N          114.63476839713668      102.16736181907905      119.22979838694955
C          116.02092812813699      102.54531268740872      119.06111988796687
H          114.12192290376591      101.88839315187013      118.39760202198063
O          109.96393688844111       97.31823661829763      122.80924690925882
C          116.21572465449239      103.39345483667515      117.81388727917688
H          116.30331607285862      103.11461105094219      119.95030549326489
H          116.64934055430389      101.64909867470224      119.00241714969322
C          117.67704180849148      103.80131819043559      117.66055437871260
H          115.88717449471478      102.81793158175482      116.94944621546651
H          115.59462158726487      104.28307807392505      117.90244107292163
C          118.02700688147557      104.33106931221222      116.27070528673968
H          117.90134418838370      104.56129709905871      118.41063205736457
H          118.30680270030278      102.93144681070532      117.86198981738403
C          117.18971559276554      105.53337576927063      115.81893650018210
H          119.07742145011250      104.62288196732901      116.29403509423578
H          117.92199077324949      103.52201209411953      115.54552696229929
C          115.97689805162578      105.14374743671780      114.98141161038373
N          115.47559031520646      106.28329434592597      114.24326821345690
H          116.27140036982192      104.36265174660051      114.26812047488454
H          115.16677799951769      104.74863849329144      115.59835449994797
C          114.25342237281495      106.35592159940542      113.70816747705751
H          116.11154004521879      107.05744626920198      114.08112273777670
O          114.68336262416629      102.36559714029211      121.46802437217868
C          114.07164212182813      107.61637876693113      112.87745191107376
C          112.62032684097203      107.95198107439387      112.56251490376053
H          114.54975817431666      108.44149994446398      113.40544022790010
H          114.62364527672834      107.45809549688975      111.94931282214459
C          112.44248179391012      109.36302869480272      112.00173060018778
H          112.22949089129749      107.22395156442562      111.85169312882955
H          112.02644383187419      107.86129506442998      113.47389124909890
C          113.25881752417547      109.60687958615101      110.72835867131762
H          111.38296222404919      109.51381047197941      111.78579549352793
H          112.73420916631035      110.09779655591218      112.75552775763767
C          112.92103559289868      110.94986826792118      110.10767096730619
H          114.32286187614098      109.60856515604777      110.96353016822640
H          113.05296669355911      108.81298909629433      110.00964202777676
N          111.69100896384610      111.03956256099384      109.58801645396439
C          111.15995527227727      112.26256794210435      109.02292757651625
H          111.09812088127070      110.21596964175812      109.55595014015130
H          116.87154451000605      106.10978988314206      116.68752818431680
H          117.80620796061916      106.17901908907425      115.19226373259565
O          113.39504693965559      105.48752921945010      113.85504288812233
O          113.72239156773064      111.88147334955575      110.09505149434702
C          110.49514705955423      112.03583152114203      107.66851989067904
H          110.42865194487361      112.70432059521895      109.70914017938802
H          111.99508481365615      112.96026099942016      108.93145859840759
C          109.91505924331456      113.34751937997495      107.13931742558805
H          111.22303327953897      111.63174166368557      106.96433099548527
H          109.69534228166852      111.30176873203462      107.78938178952599
C          108.97909283913121      113.16172754867844      105.94589797685835
H          109.36551369067115      113.83267466756054      107.94790182712349
H          110.72679018190895      114.01818966788278      106.85521639576409
C          109.71268797289677      112.76974463141316      104.66429972028190
H          108.23261591427256      112.40063269889107      106.18397923267905
H          108.44904886701370      114.09904679507859      105.76658058006768
C          108.74977765347798      112.55606361298723      103.49623233605557
H          110.41275678964315      113.56310101501371      104.39682340685258
H          110.27291936530506      111.84739879993103      104.81484187486517
N          107.98197199561461      113.74859345043863      103.22015807330662
H          109.31389715482504      112.28088197878441      102.59767024436263
H          108.04183043665715      111.75530458214254      103.72114505496192
C          106.65522905135684      113.81308610153634      103.24892982220537
H          108.50595104537481      114.61715784842843      103.14016511131967
C          106.07771193055108      115.18853955392990      102.98718345268952
C          106.58011007023562      115.83292623818204      101.69399068668574
H          104.99225900515184      115.09910117925678      102.94428229660294
H          106.35058576865077      115.81761806293071      103.83581281889080
C          105.97484874273037      117.21860860441272      101.46415997883264
H          107.66387545723620      115.93551197084260      101.72993138597194
H          106.32465782269459      115.19130060970959      100.84936933791448
C          106.49184821673359      118.25772398540909      102.46948851474552
H          106.23602001143351      117.54417049330806      100.45453573879762
H          104.88563931225738      117.17183076344169      101.51863251175261
C          106.01448371121653      119.63208611035564      102.05469040397971
H          106.10107931735165      118.03480590781535      103.46143645054951
H          107.57921232751490      118.22169354277014      102.49438488477064
N          106.92799514065578      120.41082261824975      101.46800764652598
C          106.56819977241484      121.66912667914147      100.84147305948801
H          107.91461125873168      120.17536118183061      101.48679311908434
O          105.93271587715576      112.84164458649201      103.50689544494942
C          107.76265496669454      122.26254752399787      100.11019095443615
H          105.74030075331400      121.47937484634822      100.14831293865436
H          106.20474317160632      122.36533833494538      101.60306851691706
C          108.23236913587736      121.35330680418886       98.97701156266470
H          107.48890500572715      123.24322017756178       99.71898096737559
H          108.57441441119282      122.41056610502439      100.82549092793437
C          109.59273824676271      121.77869545091843       98.43464391566098
H          108.30642037375658      120.33702571377741       99.36180525538470
H          107.49384514474193      121.35148198188855       98.17246736401653
C          110.19370297346190      120.76008666063703       97.46554491122609
H          109.49455198005604      122.73754076043286       97.92175195944792
H          110.27054301602621      121.93063748736144       99.27573839188831
C          110.50558900504328      119.40016415634899       98.10202046266163
H          109.50239644922829      120.59221371317449       96.63813286952998
H          111.11966828446336      121.16527799999356       97.05188796018967
N          111.45056285293209      119.50525405525909       99.19322975621219
H          109.59270040882839      118.92734759547841       98.46864992116022
H          110.95325315568344      118.75415498048709       97.34231888028197
O          104.84817751939512      119.99753826055478      102.20519096825015
C          112.73143421319314      119.14567369792717       99.06167240563451
H          111.09301530975978      119.87699379685405      100.06441196633870
C          113.68764268064864      119.42077921321986      100.20689124631667
C          113.11305723136621      119.93455270514899      101.52086277469580
H          114.20112868293697      118.47518080778323      100.39908765396824
H          114.43647213408319      120.11755967739410       99.81936960732844
C          112.63846901634203      121.38805623626527      101.48483834855266
H          112.28889659194554      119.28991392762350      101.82583360745856
H          113.88520629177202      119.83129442223147      102.28508091897169
C          111.77469510549467      121.69808449326781      102.70652416265176
H          113.49752606704894      122.06115735276151      101.47173847960823
H          112.06304716543232      121.58611424126667      100.58080048918303
C          110.58841755814004      120.76239744910166      102.85041996784045
H          112.37159243437839      121.64092647914795      103.61616118865905
H          111.35979964001594      122.70650903935383      102.62352312336414
N          110.26350451272639      120.48470119485407      104.11439972573399
O          113.15294214856767      118.58933440408177       98.04402332024043
C          109.11042646272101      119.67751932807987      104.46468734375335
H          110.76070308179308      120.92158594125129      104.88536672374323
C          108.89604364982117      119.68304795884247      105.97112354630147
H          108.22469924174347      120.08736213189063      103.96406780666463
H          109.26180350104900      118.66135228838468      104.08807931249333
C          107.53523788183338      119.11820357219747      106.37651667671425
H          109.69479054774990      119.12089453649570      106.45508685896388
H          108.96028352326000      120.71734658090432      106.30847807294491
C          107.44579012829607      117.59646975391276      106.24944444131262
H          107.34085918007155      119.40333898129575      107.41093770425886
H          106.76147748923640      119.58094617203339      105.75916240764306
C          106.01740858100329      117.07928935418377      106.43590907233553
H          107.80543604293193      117.28932607176552      105.26631228311800
H          108.09192541313611      117.13268170893916      106.99668299015788
C          105.47672654416399      117.38120138511287      107.83239684958461
H          105.35640225476683      117.53600515787718      105.69563565029206
H          106.00034523386904      115.99702054266035      106.28618423784771
N          104.18047362941877      116.78254376264988      108.05663127012781
H          106.17931485982727      116.99310024752742      108.57661911360093
H          105.36008253725817      118.45637113301277      107.97314293713599
C          103.10802652853312      117.44632864783057      108.49180517049085
H          104.10669281825656      115.77280790882483      107.95575141390718
O          109.97306644660826      120.29390363403269      101.88882814249362
C          101.89171275690140      116.57034075767987      108.72044677038564
C          100.85346463591479      116.69062352300122      107.60150657404887
H          102.21451717408739      115.53261176185093      108.79725315947955
H          101.42845441718218      116.86763573176449      109.65969671243001
C           99.79728782028971      115.59820217844924      107.75290318486873
H          100.38088884334192      117.67402553057950      107.63049813803079
H          101.34366132919213      116.58957639098801      106.63197831430010
C           98.81029027759550      115.57517978885276      106.58413755535376
H          100.29759706661933      114.62823449319053      107.81505945916567
H           99.24747954923852      115.75393629755413      108.68244820426348
C           97.85998752584381      114.40431692039427      106.73290418359534
H           98.24010638212754      116.50243557068590      106.56502722242092
H           99.35193946058614      115.46062403811936      105.64445913248606
N           96.95555768394016      114.53080494086774      107.70306112794816
C           96.05519417522063      113.46492010713405      108.08565142195951
H           96.88285944781362      115.40493461490556      108.21525450645743
O          103.10069548813738      118.65934131242668      108.70468196337117
C           95.94946806861060      113.35567433003207      109.60518007356441
H           95.05914715980683      113.65219014907041      107.66614645554539
H           96.44148941613658      112.53957816967200      107.65031513652787
C           97.29147122858130      113.11394488728901      110.29553752353887
H           95.52977091652537      114.29071991926422      109.98237905071083
H           95.25591423119701      112.54890463027775      109.84495838812026
C           97.89083871543993      111.72757876588122      110.05966887955988
H           97.99892148916459      113.87315529793403      109.95776080664314
H           97.15008074403661      113.25089051632527      111.36945088171861
C           99.20564915460648      111.59052930875151      110.82641380609624
H           97.18600621217958      110.96562590012078      110.39938858679936
H           98.06544158769762      111.56666994001000      108.99506107388926
C           99.84747983862023      110.20815113575496      110.72729586113711
H           99.91763843165113      112.32794185920436      110.45418638025646
H           99.02342688762620      111.80261019730514      111.88134122558014
N          100.39964204146388      109.94851166506243      109.41616263917604
H          100.68020711965279      110.13836740975542      111.43242366198885
H           99.10859312080444      109.43934590339197      110.96990189977167
C          101.70008540431907      109.70416675346280      109.22119583378341
H           99.74764659873897      109.87180638594556      108.64140176841241
O           97.93801164988831      113.40845840339504      106.01256194826721
C          102.10821013004198      109.49446938426080      107.77555816673608
C          102.79360094934427      110.73408523391430      107.18921856121631
H          102.81235120120408      108.66109949711220      107.73952295339315
H          101.22993404407470      109.24837421943481      107.17782435355440
C          104.11219365040964      111.06856531732930      107.88729409203876
H          102.97601984574536      110.53921002632691      106.12874532741803
H          102.11554256910907      111.58732934196668      107.25480803341082
C          104.95961737171302      112.05867446033164      107.08205931865058
H          103.90288171616207      111.49490513930715      108.86926690342341
H          104.68370467119070      110.15215724719796      108.04534268842960
C          104.19605653127596      113.34444664504210      106.86662800335827
H          105.86429439752722      112.28479659814485      107.64900587376250
H          105.23068315031423      111.63471178743758      106.11798640970262
N          104.10546635261301      113.75909623248670      105.59706676421646
O          102.50803216046195      109.64264302288733      110.14624239009665
C          103.21619166006795      114.82570413901014      105.19672734180187
H          104.60273278567355      113.27259328764868      104.85542009303593
C          102.20729293620006      114.34977738593196      104.15107941845460
H          102.69142569044241      115.13940998870869      106.09970718570008
H          103.78808415385330      115.67329480351881      104.80922734447911
C          101.43931097627060      113.12303196395008      104.63608677365166
H          101.51617593007605      115.16800987400408      103.94640893862399
H          102.72547526238849      114.10807698378606      103.22030864432068
C          100.32407737068905      112.69769183339176      103.68591989017334
H          102.13515750800164      112.29092946369680      104.75128701975848
H          101.00512030110207      113.32587293343583      105.61694809291589
C           99.84604684693389      111.28298032309166      104.00917429848721
H           99.48520244506807      113.38841439049595      103.78052577515373
H          100.67911625319164      112.73188331189938      102.65371400722078
C           98.59200868909943      110.90849355465298      103.23302855799648
H          100.63714516991980      110.56731157352208      103.77785565866938
H           99.62735520593318      111.20450121062689      105.07612835419593
N           97.43675533653307      111.58218038916779      103.79333842960078
H           98.69281351157761      111.18130319805994      102.17531665017484
H           98.41516245996620      109.82817054077611      103.27216695566572
C           96.18542145253429      111.20196371073196      103.52014196278259
H           97.61558503614197      112.21888240396534      104.56145192786433
O          103.69604466796034      113.96864485251885      107.80115933749681
C           95.10641450349999      111.95533423153235      104.27909235931202
C           94.36050517825279      112.91641254960686      103.34716374948636
H           94.39778545896995      111.21692545413141      104.65767035950077
H           95.54463854560039      112.48919507503322      105.11967479540097
C           95.20542250913216      114.10665909975657      102.89114909347155
H           94.04040049848430      112.35228075089843      102.46817516577346
H           93.46694247240364      113.28474036486699      103.85450130794139
C           95.52304406427585      115.07563522251351      104.03714148230884
H           96.13079574531866      113.73992639226000      102.44294684986158
H           94.65073114329859      114.64892366423516      102.12176108927149
C           96.12857742990025      116.35868425540593      103.50185595580561
H           94.59901175965648      115.33501551831863      104.55530994327562
H           96.21037373677943      114.61334255065225      104.74286098649935
N           97.42760815799934      116.26927145303466      103.17251902062429
C           98.17301702997410      117.35640645951031      102.57097163615600
H           97.88899032948578      115.37544513269727      103.24544533505903
O           95.91961862730228      110.32944633136991      102.69447875428334
C           99.58912290274795      117.44739601930398      103.13262912343438
H           98.21593254646618      117.21683176118532      101.48404778724867
H           97.60896145087035      118.26947346219406      102.77374237594834
C          100.35052194648125      118.63149601642610      102.53298970607014
H           99.53799166675225      117.54153590140264      104.21795542527850
H          100.11630598840949      116.52205975462040      102.88901055325471
C          101.86378590255595      118.54118678235223      102.73664548388858
H          100.16010033371138      118.65718734712625      101.45823799906769
H           99.96487286510114      119.56095466294579      102.95224987089908
C          102.33134717419343      118.61116483506846      104.19126987837120
H          102.21145220558689      117.59530798926836      102.31562646083785
H          102.34805966523005      119.33954463971676      102.17345065967129
C          102.12488884074912      119.96648602339540      104.85510160738643
H          101.81423844207035      117.85725008835526      104.78408820049869
H          103.39826750613727      118.38267910423696      104.21527117640163
N          102.99745563783537      120.97374647533319      104.28076735127109
H          101.08543184882318      120.29711658048869      104.75727122443193
H          102.34176319129787      119.88299781360962      105.92802116650994
C          102.97878618144891      122.24477309050948      104.68183650168953
H          103.63507082347425      120.67152497424186      103.55116447423951
O           95.48374593983486      117.39203147906794      103.37715374693948
C          103.99363421216921      123.15440553218932      104.01232716125520
C          105.41980677819741      122.85273390462829      104.48547452673023
H          103.93272699622088      123.02049997132410      102.93122352553679
H          103.73073073426376      124.18515501988455      104.25609648734481
C          106.41951254793719      123.88773184176159      103.96398103673363
H          105.45149825042738      122.83878235640121      105.57750579376179
H          105.70519353169338      121.86001112760117      104.13154216873255
C          107.86164185858455      123.45121165777036      104.22950275492185
H          106.27826006277363      124.02810282539357      102.88983525064140
H          106.24104679955332      124.85046194476030      104.44558058981629
C          108.85637947650783      124.41687942175359      103.61149055215087
H          108.02737372152673      123.39715579880790      105.30440623967833
H          108.03618524449503      122.46834376950709      103.79037039734865
N          108.96425249146786      125.59322409031162      104.23544936018048
O          102.20369682363193      122.66184525566163      105.54278979258869
C          109.82938527539969      126.64712262502812      103.74707160791269
H          108.47377191221172      125.75955415824079      105.11022472710056
C          110.42147483739424      127.47085205345080      104.88510108832335
H          110.62031893842617      126.17146025966370      103.15763840837175
H          109.26446310323800      127.30005538929559      103.06979724900731
C          111.55197733269861      128.36484277223869      104.37914566685023
H          109.63476733940166      128.08044949267432      105.33022025883415
H          110.79909896499227      126.80013200155868      105.65788709445746
C          112.08969384674610      129.28722213515445      105.47124329054935
H          112.35644644149296      127.73332193769136      103.99919434011169
H          111.18668574351609      128.97007015002916      103.54647877036280
C          113.27796909484327      130.13354290373545      105.01533524973878
H          111.28965840566067      129.95844565848117      105.78737068833328
H          112.38057660334191      128.69618691052290      106.34107041226190
C          114.57764708668563      129.34000895659824      104.89163080927760
H          113.04775261218617      130.59865215777282      104.05393030005993
H          113.44674393269817      130.93218648860361      105.73814089709963
N          115.69289494362397      130.24769981235900      104.64910172495379
H          114.78180472012829      128.82806927963824      105.83608359924270
H          114.47557221578134      128.57236938650698      104.10735528331973
H          116.55423184176159      129.71958511698764      104.55915652056152
H          115.54745162618720      130.74163187267501      103.77500765900265
O          109.50198636635442      124.12997499513564      102.60527588386745
C          107.96680947041527      103.84688658878741      127.60329132365599
C          107.83497541678675      102.35624591898360      127.39118423862008
C          107.15527688512375      104.66137046593987      126.59708715787926
C          107.62179113757438      104.47352210504035      125.15326505053019
H          106.10903932055618      104.36026662586576      126.67007828627445
H          107.22617047459191      105.71651241691735      126.86390447608110
C          109.03690075724067      104.99586000959152      124.90465257321063
H          107.57582209215485      103.41341190631780      124.89520456050964
H          106.93886428569898      105.01772594512219      124.49802474642557
C          109.10703110023779      106.49465124251680      125.14468857920170
H          109.76286308841892      104.47888896128389      125.52780928173310
H          109.29923148637204      104.82361600700192      123.85763744933824
N          110.02842041986537      106.87135215567751      126.04414183797097
O          108.95677239386006      101.72312809463081      127.65857701752856
O          106.81505038344980      101.80133477954084      127.03092576532015
H          108.90237018131046      100.72445034056742      127.57270288588832
H          109.02652569201712      104.09768398122790      127.57377138633196
H          107.60320498687469      104.05076528688350      128.61487320681348
C          110.36012270282623      108.26065527326159      126.26973306055088
H          110.63168446412763      106.16250008877795      126.44864506534650
C          111.66332934918738      108.63194437455530      125.56500022635535
H          109.54139700407529      108.84981686139606      125.85080347793146
H          110.43180719684408      108.45002452203771      127.34382659562661
C          111.96370417576306      110.12552045137298      125.62043343243339
H          112.48470337605578      108.06639183765493      126.00527415416443
H          111.57456656599659      108.33008221531293      124.52035937591255
C          113.22404595394944      110.45960903085502      124.82304500946081
H          111.11901508621712      110.67078510857590      125.19616276687862
H          112.07989145164431      110.44433519532690      126.65764164778861
C          113.38364949914016      111.95977475665170      124.60510924304130
H          114.10365310494822      110.06827205005040      125.33799312469333
H          113.16448782575533      109.96894526718397      123.85089789200426
C          114.52388490209817      112.27617090068894      123.64537684343685
H          112.46568272329779      112.37423636930426      124.18624253338366
H          113.56670090333350      112.45745135529019      125.55788681868151
N          114.58543481122905      113.70201965554799      123.40958567636676
H          115.49030563526270      111.96329258908372      124.05119047487703
H          114.36521569756428      111.74680573344540      122.69912670002344