3864
 energy: -5104.057393639979 gnorm: 0.000986621793 xtb: 6.6.1 (8d0f1dd)
C           38.21664251939604       60.97514540560748       51.28740302888280
C           37.12847386318035       60.51258531020167       52.01475702618710
C           35.94851093101400       60.23308539390837       51.33406587186947
C           35.85442110111257       60.43611865313269       49.96941773903082
C           36.93805476908568       60.92366893599752       49.25929792319872
C           38.12317903632610       61.18133446839423       49.92233134922277
C           37.23064058771758       60.34771461169608       53.51290194541762
C           36.15903777827418       61.19300925212347       54.20865289461279
C           37.13938048664537       58.85833533312364       53.87993238970301
C           37.25936398256168       58.56099399373173       55.38258883705269
C           36.87348384218062       57.13157046215326       55.67117372726595
C           35.83685965369202       56.85367004833994       56.55459100798153
C           35.51459389592593       55.55038063453703       56.88580081420341
C           36.21905267141443       54.49930334653529       56.32557427573139
C           37.22286884216265       54.76255919941536       55.41001281559267
C           37.55310942239581       56.06704980383935       55.09176847740327
C           38.67342759470912       58.83434745991396       55.91453181577032
C           38.74722605429851       58.74014542995943       57.44216829587508
C           37.75793493663922       59.67464028686595       58.09636999448175
C           36.84031530651833       59.18791967180078       59.01909640320455
C           35.93036858717353       60.03190796619810       59.63140861487869
C           35.92761597261554       61.38326884310870       59.33212733060677
C           36.84416637239884       61.88243870516001       58.42246129450131
C           37.75145301905465       61.03559624362001       57.81092146793866
C           40.14841614589461       59.06934698802284       57.98512929908145
C           41.28324166389294       58.12246181726636       57.56035841409605
C           42.59621574806461       58.66162916701938       58.08327074412856
C           43.61217306958344       59.02999998826239       57.20957130127346
C           44.82104925333978       59.50808459857713       57.68524347990615
C           45.03133227928889       59.63604618895207       59.04651979837922
C           44.02775953475812       59.27257319248718       59.92786834628914
C           42.82674461789144       58.78282450422348       59.44952676077325
C           41.07203561944713       56.68963017279407       58.06132073288337
C           42.20406479351082       55.75424152970481       57.59897163789909
C           41.94822735821636       55.27569685080856       56.19500114182558
C           40.97592744920463       54.31797616888661       55.93357294542425
C           40.75087394316838       53.87627129523074       54.64339901833630
C           41.48047970758264       54.40057282814102       53.59032643231215
C           42.43453088425219       55.37178888840300       53.83605153887797
C           42.67170876367832       55.79789255124668       55.13089620779711
C           42.36534474696625       54.60217458608971       58.59713892100333
C           43.32663783687636       53.49512175402475       58.13708056161684
C           44.58700779673283       54.03079992068690       57.50851055528928
C           45.03593494713916       53.52382279024081       56.29588564439656
C           46.22161145838343       53.96415448327835       55.73475080950690
C           46.96251834354904       54.94987622827364       56.36405045395949
C           46.51191615222260       55.48256134357415       57.55996587610304
C           45.34470702911750       55.01390878239009       58.13423965619177
C           43.66805445495532       52.62065279992305       59.35246684570880
C           44.37425625889593       51.30270633073079       59.00030790298153
C           43.44343433063683       50.40560021488767       58.22655237685825
C           43.71817543361384       50.08176773112143       56.90360038104536
C           42.85527047554744       49.28730575230543       56.16828102078637
C           41.70064807934421       48.79688166936725       56.75091654828606
C           41.41816010253778       49.10533587611518       58.07160210254817
C           42.28005251497853       49.90504762616043       58.80022906999182
C           44.88722925541560       50.67532124260856       60.31000628712759
C           45.25710585842658       49.18705433274591       60.25267682532761
C           45.64131264514532       48.71713638120823       61.63669063565833
C           44.92528295110697       47.69865516294394       62.25000632367630
C           45.26358596962550       47.24998326561946       63.51496151356659
C           46.32425823195494       47.82301797709779       64.19093728752392
C           47.04192707456767       48.84705479977244       63.59614640706094
C           46.70658774638488       49.28376004108761       62.32823393348499
C           46.37667159785945       48.85775044396707       59.25666318876404
C           46.43738517227621       47.34073472825857       59.01682282533218
C           47.81174877669653       46.86219586468313       58.62609300295827
C           48.30840290210523       45.67132048212598       59.14186208555533
C           49.55429321837032       45.20074225878719       58.76653876536557
C           50.32989061601048       45.92238445463157       57.87778930019177
C           49.84897636581900       47.11113699551328       57.36028703346133
C           48.59825144572394       47.57158431909789       57.72628040639261
C           45.42319050724595       46.92043643456890       57.93504792922466
C           44.95342982718893       45.47547372556910       58.13170959185751
C           44.10480850134956       45.35437897703142       59.37604813659331
C           42.90217118260782       46.04469270834440       59.49079746575593
C           42.12210177143434       45.92423855004419       60.62673422399144
C           42.52892484094869       45.10940216367295       61.67024299661926
C           43.71817314697224       44.40822168558665       61.56439329056117
C           44.49582488149495       44.53280583251386       60.42602597553464
C           44.15102759393660       44.93938976435464       56.93794600600698
C           44.94656119405590       44.79095678963531       55.63234304726274
C           46.26630502471806       44.09424190420327       55.83755655896957
C           46.33335634391788       42.82177443493516       56.39172656417846
C           47.55307059521688       42.20149636096492       56.59176653318653
C           48.72359675663684       42.83506321763758       56.21167131856286
C           48.67045494772936       44.08825684932191       55.62862210456183
C           47.44969075195015       44.71440866203785       55.45460945803908
C           44.08152261557073       44.05029496108411       54.59301218932584
C           43.24731701898457       45.03040197131725       53.74366675955648
C           41.92523420984698       44.40077994760124       53.38442816894079
C           40.73347067722434       45.01115900226017       53.75937397825353
C           39.51453146163351       44.39225339230770       53.53890811095731
C           39.46931222171177       43.15275172164561       52.92308652199752
C           40.64740117878029       42.54493016023481       52.52281160392071
C           41.86428658729483       43.15988798754839       52.75884631924089
C           44.08678372461085       45.47285311369552       52.53477502455443
C           43.67514770401674       46.82061681967091       51.91528371163687
C           44.90191705207676       47.57391022775789       51.46005153702359
C           45.18234982062560       48.84504492817662       51.94428530757276
C           46.28940130137887       49.54948659898832       51.50317936860741
C           47.15914112009175       48.97577243398555       50.59268099391964
C           46.90978799855839       47.69495713923602       50.13050826657147
C           45.78655271971397       47.00690977066201       50.54952561421472
C           42.70149462330812       46.62915280124152       50.74428892298406
C           42.17379947093239       47.96944112166302       50.20984676729918
C           41.28031366268775       48.60559921920582       51.24932183805880
C           40.04935610669200       48.04714029046933       51.57628400409293
C           39.25574978360810       48.60086726774646       52.56491324643843
C           39.68217864680454       49.72384321554371       53.25422993651830
C           40.89998381820559       50.29722556842854       52.93199730164756
C           41.68471786760124       49.74580730481554       51.93338814381821
C           41.41832346939276       47.79580446398444       48.88296473658944
C           42.28017763134630       47.51262312388851       47.63616669354740
C           41.30854853379288       47.15325003038785       46.53595422646024
C           40.67477253627595       48.11704679591196       45.76031962311063
C           39.76970984923267       47.75236996632106       44.78025145275539
C           39.44678300818498       46.42066699743653       44.59075102433292
C           40.04576970486921       45.45386567683143       45.37783888198746
C           40.97922924061990       45.81939373266592       46.33078964942205
C           43.18597200064973       48.69713548436134       47.27479068833144
C           43.85177857995572       48.55124527256143       45.89718572639610
C           44.77737009220948       47.36344473601154       45.83037308257450
C           44.57895242865475       46.38015643919833       44.86881988776346
C           45.44416688597087       45.30585009855388       44.75624641300366
C           46.52584339676534       45.19526686731324       45.61321494218470
C           46.72238375147067       46.15870293669057       46.58762004118150
C           45.86011731802632       47.23539244819086       46.69297595356340
C           44.59595021821861       49.84084720888342       45.50847967670760
C           44.90859578291992       49.88349261619165       44.00923065963063
C           43.65750519907702       49.81376443540265       43.16205347916227
C           42.61053658473327       50.71293397417516       43.32652182151500
C           41.51398772222211       50.68816415382521       42.48305644293691
C           41.44687534862286       49.76843818184857       41.45076573382139
C           42.47846889018030       48.86058476671477       41.28229938797104
C           43.56945423494721       48.88425674685928       42.13297503608165
C           45.66123528921344       51.16030128846303       43.58933489071482
C           47.13102419256884       51.28022867322684       44.02573493425940
C           47.64016663181800       52.65378332547721       43.64920049568034
C           47.59821754454050       53.09384441679031       42.33023189926278
C           48.03703152592827       54.36040548507940       41.99030717143123
C           48.52730082093455       55.21553539283763       42.96084977049625
C           48.58397001480890       54.78353842803935       44.27443765662056
C           48.14981287424943       53.51367636497788       44.61486865974088
C           47.98416946502459       50.18494721211573       43.37871473318312
C           49.47284381801383       50.27239600637212       43.74041334829387
H           38.21628424876879       60.71957069872124       53.81431332668409
H           36.18129935875704       58.46554812673492       53.52987445955871
H           37.92722753377320       58.32936445806497       53.33940719963451
H           36.55849806423821       59.20740151452483       55.91831360914838
H           39.35738677825422       58.10469716370476       55.48193551581728
H           38.99669905628600       59.82589914063110       55.59916094325359
H           38.48554419127593       57.71818879787124       57.73451014757336
H           40.41647254553521       60.08416493021264       57.67778647754284
H           40.08505596729211       59.07097501374454       59.07603866588079
H           41.33871705766201       58.09236357061345       56.46826899721993
H           40.12108243586912       56.29929250211021       57.69674768245877
H           43.13875384917992       56.32411664422987       57.59349881520228
H           42.73021486451885       55.02720604196833       59.53612093730560
H           41.39275469028728       54.14793190237072       58.80356261910151
H           42.81152463164428       52.87505130415277       57.39597774938192
H           44.30935295204964       53.19257157863455       60.02749507724147
H           42.74114554968602       52.39277682605269       59.88358544929063
H           45.23249282688809       51.53875262974559       58.36246621503852
H           45.74933004845624       51.25661782674081       60.64287080700513
H           44.11288638059367       50.78313456950989       61.07530519990529
H           44.36243856180295       48.63429544181789       59.94564798859175
H           46.16371009209129       46.84519903571103       59.95509738393802
H           44.55955352673579       47.58668600758075       57.95845455551105
H           45.89749784222572       47.02469740615233       56.95789397250707
H           45.84064017401387       44.84405938938922       58.24954634391414
H           43.75717453848206       43.95984300092302       57.22320774060811
H           43.29432734650146       45.58987664120037       56.74988748613307
H           45.16410188202515       45.79049021841879       55.24250334960960
H           44.71891788768733       43.45714958442522       53.93381818035377
H           43.41716933992175       43.35195012447095       55.10595792407264
H           43.03495472891868       45.91450929929806       54.35546954902413
H           45.12334040448982       45.55955510786670       52.87243539954125
H           44.05200737872921       44.69522724356072       51.77062012805875
H           43.17029432828780       47.42032975370505       52.68104210793742
H           43.21040780401678       46.09537075347775       49.93976238262735
H           41.86447894438623       46.01293107460512       51.07751544726050
H           43.03017427358973       48.63164439442935       50.04521519889721
H           40.70816010566650       46.97153005734238       48.98692977579345
H           40.84016493399907       48.70210439753732       48.68368027744480
H           42.91262670831580       46.63834689972884       47.82471447847146
H           42.58897702333130       49.61128827772430       47.27598755891123
H           43.95596905858389       48.80625883523800       48.04108400114406
H           43.05883791064264       48.39928400140409       45.15785223614530
H           43.97356559335062       50.69943795385783       45.76771535946774
H           45.52499740587253       49.91599392939187       46.07638018646447
H           45.52247653905727       49.01065500207348       43.76794335792312
H           45.63420142174060       51.20743850472556       42.49784235938128
H           45.11485674974736       52.02904499547814       43.96823830319044
H           39.14851148266253       61.17732163917497       51.79480483356589
H           38.97874822110387       61.55242683029679       49.37758650259909
H           36.86070704462483       61.09327400153741       48.19611439422197
H           34.92841482682386       60.22113087171451       49.45727724045367
H           35.09078014926958       59.85796199895928       51.87389913127193
H           35.28779826915017       57.67205254947626       57.00007362580916
H           34.71617123126495       55.34815754415993       57.58384623936213
H           35.98762884055503       53.48574068163254       56.61529507513418
H           37.76119501996326       53.95089696078228       54.94201717903417
H           38.35431586108754       56.24961285591626       54.39149949251290
H           36.83709180969662       58.13323178250961       59.25828015425594
H           35.22236248922592       59.63377317712632       60.34398586289798
H           35.21806465457056       62.04415227084754       59.80789357858113
H           36.85999758418770       62.93745332499364       58.19046346034713
H           38.46439155483763       61.44827321035034       57.11195502402958
H           43.46128666302992       58.93321506272718       56.14322780029484
H           45.60642022280201       59.78183208068803       56.99480559768521
H           45.97442053606272       60.01269099077626       59.41460413855706
H           44.18421823360339       59.36023673787645       60.99379075226950
H           42.06608244456127       58.48623185865029       60.15667590090882
H           41.03045796457643       56.69649008441505       59.15184454093234
H           40.39929550375272       53.90788176128480       56.74840605477679
H           40.00568098870404       53.11495474229010       54.45810419983514
H           41.31798666993634       54.04779093218123       52.58388672970213
H           43.00508162166963       55.79367621813881       53.02175249870914
H           43.43781566333532       56.53792948432411       55.31389572372181
H           44.44624379529171       52.77747670975279       55.78350941276653
H           46.56475275079112       53.53641206613035       54.80307464607681
H           47.88336282489949       55.30712688778113       55.92460236082383
H           47.08007990551944       56.26057116394806       58.05016181710575
H           45.01532160205319       55.42576150559401       59.07666403702215
H           44.61756020266888       50.46328064219352       56.44099265209540
H           43.08203408264092       49.05302026719475       55.13754633923336
H           41.01940995160356       48.18005056148341       56.18374554105530
H           40.51854673602725       48.71598253402768       58.52719192317454
H           42.04725756343223       50.14491436191113       59.82711584925627
H           44.09296953799524       47.24700675692370       61.73245851905597
H           44.68883991565892       46.45489729916669       63.96499710798270
H           46.58416467035143       47.49108115202706       65.18463268701298
H           47.85443663021016       49.31329184923263       64.13258436662947
H           47.27704612356305       50.08305849933953       61.87666714317210
H           46.18839796521038       49.36609473816193       58.31192917768026
H           47.33456149477941       49.20790549788832       59.64586822830447
H           47.71802569740211       45.11593060184649       59.85852527161119
H           49.92910987110927       44.27661814248956       59.18096300914685
H           51.30906671856494       45.56690953142389       57.59736674903279
H           50.45311632478713       47.68931654108672       56.67562074594326
H           48.23963535897963       48.49994030579074       57.31115850751763
H           42.56645201724203       46.68832826143102       58.69015116959438
H           41.19714374403850       46.47749045914156       60.70143403508464
H           41.92086823607181       45.02284756912486       62.55902519738404
H           44.04447894899703       43.76274098777841       62.36767371076722
H           45.41928875393771       43.97582335703980       60.35534576578301
H           45.42260128574873       42.31291979493935       56.67104811446671
H           47.58912509172296       41.22069749574368       57.04375047872129
H           49.67741402706555       42.35317169082941       56.36197772541208
H           49.58048955522706       44.57488306164439       55.31048522955782
H           47.41777406432705       45.70200262090775       55.01459549875116
H           40.76194178078290       45.98270938562739       54.23474473518145
H           38.59692352931617       44.87243506930785       53.84822522199164
H           38.51894069172511       42.66991012790268       52.74766877811840
H           40.61757117737118       41.58392033785542       52.03053870097919
H           42.77583531913157       42.65949049504751       52.46675998536374
H           44.52548857297307       49.29297228004016       52.67651822584187
H           46.47193942543733       50.54595019427923       51.87893793850003
H           48.02676123874695       49.51856073908449       50.24721785253276
H           47.59719327653722       47.22715046911463       49.44193845005613
H           45.59535346855916       46.01533093037113       50.16681450545531
H           39.70319225400726       47.16894305813265       51.05384001352144
H           38.30185387991118       48.14559461252391       52.79440934665610
H           39.07310784419982       50.14858719749064       54.03932389015447
H           41.24662842398516       51.17279154355249       53.46263857296230
H           42.62793857074288       50.21081607553317       51.68434155653407
H           40.88105598155401       49.16554783657720       45.91320840205070
H           39.31066213803602       48.51424851727435       44.16810688433610
H           38.73531333860848       46.13771900019736       43.82903782362057
H           39.79074491758868       44.41397604853668       45.24069800159447
H           41.45555557165399       45.05977097913683       46.93553584215974
H           43.73882253683257       46.46369781533510       44.19419741040993
H           45.27937808465767       44.56180457636604       43.98967759673996
H           47.21724133463454       44.36926961512573       45.52042001099962
H           47.56076544497027       46.06821949102324       47.26309229159757
H           46.03542937984291       47.98210667428638       47.45455262296218
H           42.64680318458267       51.45156669730692       44.11355602252421
H           40.71623018447522       51.40267474111942       42.63091510507495
H           40.60328450041948       49.75649914020506       40.77596631657363
H           42.43243952530759       48.13956096583431       40.47751648929748
H           44.37477641349601       48.17630332400721       41.99899376015308
H           48.20737917449654       53.18903715566577       45.64438016550685
H           48.96456947840769       55.44311634976540       45.04132776637017
H           48.86482495465384       56.20668715628074       42.69455104956187
H           47.99396147440659       54.68164128408452       40.95945739215138
H           47.22151233741284       52.44434454456027       41.55425024178898
H           35.17577269744690       60.74246606800517       54.09633462529083
H           36.36951915638836       61.29641783794653       55.27089090382550
H           36.12897415796422       62.18883766039467       53.76888937576142
H           47.20431341016978       51.17387111404492       45.11262649424543
H           47.60854161085989       49.20913254139785       43.69050990363719
H           47.88515525440770       50.24354386096945       42.29155190624437
C           50.19441952731989       49.09660305729204       43.06893658710156
C           49.71000471467072       50.26233272029142       45.23007151497935
C           49.19951171006452       49.24981621617643       46.03591965010703
C           49.45756412711344       49.23308739453270       47.39460468054153
C           50.22868249804857       50.22549305164540       47.97449130393058
C           50.73460744456141       51.24377288542936       47.18611261202256
C           50.47629335477521       51.25699142154777       45.82610401034432
H           48.59362183877712       48.46485127581761       45.60509428972462
H           49.05654612602697       48.44083990431967       48.00990820614725
H           50.43695788916395       50.19797887644929       49.03429599008098
H           51.32937468922511       52.03189838213473       47.62624243593142
H           50.87813112878653       52.05624059604653       45.21898584078480
C           51.71968620070440       49.14224364213329       43.19651294407735
H           49.83352919291457       48.16538755133866       43.51110654672260
H           49.91806792350989       49.08217010297945       42.01242575397588
C           52.31785844366457       47.89677784265479       42.60368771512611
C           53.04361391353888       47.00213199280678       43.37741361197083
C           53.51899693068173       45.82063682078074       42.83435447850198
C           53.25272370019989       45.51501762554546       41.51237604227720
C           52.54095901198323       46.40336853749110       40.72580319871619
C           52.09202903145493       47.59136299473100       41.26632712301461
H           53.23689458442936       47.22279705625293       44.41768720773954
H           54.08599889881238       45.13815863623115       43.45152837485507
H           53.60112137729308       44.58815495895430       41.08202218535820
H           52.33347808999578       46.16446966221952       39.69267293877268
H           51.55716857078557       48.29303208592376       40.64346750852930
H           49.87240892528040       51.20936987482413       43.33506364205645
H           52.09965735982621       50.02364916084159       42.67205802568403
H           51.99865666075985       49.22673568287554       44.24910034255593
C           33.31043028101934       63.29350855044678       47.25577764654754
C           33.76957486970063       64.59546613523696       47.40791509304869
C           34.08378686576996       65.04211174779978       48.68641774042938
C           33.95082594117989       64.20633445415710       49.78038181104063
C           33.49617416288933       62.90939160104558       49.61644884877889
C           33.17412211917327       62.45628792410956       48.34930685637014
C           33.91778787852558       65.49870407558252       46.20882311303156
C           32.96912374427053       66.69476665371691       46.31833727422620
C           35.36806755007742       65.97635117284929       46.05489790386918
C           36.34823001878140       64.80627343008953       45.90187107484881
C           36.00566683623271       63.97699053172151       44.68702810809170
C           35.69620881198098       62.62933765616187       44.82682932837586
C           35.31580584496962       61.86846625701320       43.73547967310098
C           35.24565590229827       62.44776358640554       42.48075045872641
C           35.59316848592236       63.77735310773865       42.32020388873864
C           35.97046792423513       64.53424901330584       43.41440735622484
C           37.80637722307053       65.28159755919908       45.81391488666702
C           38.34534257941355       65.97940015507174       47.07327082157072
C           39.73185813828314       66.50573027527781       46.78955878604992
C           39.95074037281287       67.87500485979700       46.70391973241063
C           41.21521542796620       68.38197575195058       46.46103251952353
C           42.28705871190055       67.52173872642589       46.30186934996457
C           42.07962076024558       66.15546058069083       46.37656950178567
C           40.81377141786694       65.65059469590936       46.61105246042533
C           38.34399012147339       65.04077717410432       48.28464992846806
C           38.98512444822261       65.68107306445208       49.52324537176728
C           38.21201398980984       66.88804817525707       49.98197340460230
C           38.80879178851242       68.14224754753512       49.98429989380895
C           38.10396069493381       69.26076763410549       50.39248435998127
C           36.78838528046490       69.14100230434829       50.80586473269469
C           36.18628351992811       67.89410402425521       50.81523929512021
C           36.89418393706466       66.77771190782903       50.40880348972475
C           39.10176632704255       64.62683245960510       50.62829269554703
C           39.71952557083834       65.14675892694362       51.93332379869904
C           40.97030551536171       65.95467146215776       51.70050962605814
C           41.99113189790974       65.49958300922199       50.87331836422597
C           43.13257015125163       66.25565544180779       50.67383949405061
C           43.28555146489214       67.46896289155366       51.32254019194606
C           42.28170475789063       67.92978422761537       52.15617894582407
C           41.13011870235578       67.18266942402903       52.33123526366445
C           40.01288749310290       63.93136346824269       52.82507595382314
C           40.60746925702476       64.27819214848387       54.19141983646541
C           39.61906042475340       64.99921653837480       55.07198263037327
C           39.94221263402923       66.23174466393206       55.62560217027882
C           39.05201925700062       66.89815229668811       56.44931260443248
C           37.81674595291944       66.34082583895434       56.73031692564292
C           37.48427299515505       65.11126375248695       56.18734904865044
C           38.38078320317992       64.44411335883024       55.37269466212881
C           41.10659264790733       63.00863827614265       54.90036312228579
C           42.36521231188389       62.39322322554073       54.24686054194225
C           42.01238967859855       61.17889871204296       53.42806183139607
C           41.53430900710350       60.02153345478861       54.02932606152203
C           41.12951853475111       58.94267945250539       53.26428856909313
C           41.16454246539969       59.01620116159680       51.88347418436265
C           41.67982164985620       60.14593683387471       51.27347858936290
C           42.11862558027303       61.20793318414940       52.04269412852557
C           43.42334332442551       62.08961435859693       55.32031976014226
C           44.19752040953742       63.37350497976174       55.66823507372293
C           45.18979189894475       63.65612384559157       54.56789054301019
C           46.32890495731726       62.86868969350087       54.43107800955549
C           47.23352296460934       63.09740190665657       53.41109319417868