3536
 energy: -3716.284756164248 gnorm: 0.000698396745 xtb: 6.6.1 (8d0f1dd)
C           51.65103281348871       57.24963129497479       73.53390858616018
C           51.46955149452178       58.66529769145358       74.07443805340223
C           49.98531140235376       59.03259229592941       74.06998522781191
C           52.24547336150248       59.69243816298816       73.24188813533826
C           53.75731847709206       59.46575774224372       73.13760748475248
C           54.42088997411500       59.45961009999399       74.51484671464644
C           54.41809666317912       60.55587319217525       72.28163922481859
C           53.93345006804334       60.66958291233944       70.83220962547756
C           54.07428732426806       59.34109814278903       70.09170100430705
C           54.72647523569650       61.74165697920907       70.07027307649493
C           54.60627432279816       63.17995390499288       70.58882979945973
C           53.16428362001554       63.68060943348351       70.50809477693741
C           55.52034431552610       64.11248313577651       69.77706898181765
C           57.01064293514990       64.00889990411382       70.12321042753086
C           57.30098996922355       64.68996499508805       71.46144213963709
C           57.89635976141378       64.65647349271430       69.04942883863623
C           57.83631972626817       64.04848416013223       67.64206337031648
C           58.12713955080521       62.55041522313337       67.65777878383477
C           58.83472959491723       64.78577949238648       66.73421333053216
C           58.47322800227511       64.74734565885797       65.24319722210201
C           59.69055255495420       65.12714742424392       64.40209832928517
C           57.29766972113062       65.68836560429310       64.94673798526534
C           56.52018360552158       65.35833585031689       63.66649875620816
C           55.61374145083114       66.53292465296394       63.30222130010796
C           55.68750445863539       64.08228576068257       63.83617371974776
C           55.29011277492188       63.41532909925809       62.51343618801073
C           54.10832906914579       62.48140925055876       62.75468003605013
C           56.46553759009649       62.63999599779734       61.90570887670492
C           56.25846673880115       62.25642858591106       60.42743310450182
C           56.38306262598705       60.74523997388442       60.23962678365689
C           57.25201625347788       62.96613257014460       59.49811512204425
C           57.12907604658361       64.49358341384838       59.44482567235090
C           55.77666967801032       64.91377425664500       58.87511815426181
C           58.25948013119704       65.08211470091229       58.58744768863851
C           58.54318715329742       66.56650970932004       58.87299105830600
C           59.10187483466009       67.24621896757324       57.62528817405239
C           59.51293816445573       66.69114868194238       60.05379726097442
C           59.69394656098018       68.10046205080680       60.63516314696312
C           60.96513808382630       68.12453367214502       61.48424481949568
C           58.47334617294243       68.50601181106462       61.46801889811675
C           58.38385042551577       70.00048682156888       61.80915359731404
C           57.34197802348273       70.19271589546184       62.91328464469044
C           58.04224788335902       70.85613770059634       60.57474881286857
C           58.87652984571734       72.13610672428565       60.43976964685118
C           58.64644502352378       73.08814228689377       61.61326241308304
C           58.54451479288213       72.86673396979921       59.12878389071642
C           59.23114928665172       72.32444026643421       57.86877437617234
C           60.71900457818857       72.67458871174397       57.87586120289582
C           58.57126833464333       72.92511107050130       56.61810513722615
C           57.22601819741352       72.28079767101548       56.24188993306374
C           57.45749867084527       71.08612786272134       55.32071867812574
C           56.31433199035907       73.33231015588771       55.59573844157291
C           54.88866050801661       72.87383651588674       55.25922156516275
C           54.16635871389670       74.00219769379697       54.52101191584582
C           54.10375312035987       72.44521819892340       56.51492792557128
C           53.61215362908430       70.99395342692804       56.45554724253869
C           52.41243669873209       70.88528856687357       55.51678055791776
C           53.23702440684794       70.45192125872239       57.84142400527559
C           54.41654221090545       70.17739396420029       58.78285932395559
C           55.36040590628073       69.11918843828749       58.21281136057521
C           53.92952528540305       69.70025985637254       60.15973049284050
C           53.11420124007847       70.69993178410481       60.98878483972996
C           53.85688504713512       72.02527176450751       61.16469397277714
C           52.80928735031213       70.11992685130718       62.37903477861803
C           51.79791644802250       68.96482180602015       62.44068130457237
C           50.39963230684665       69.45572548340721       62.07389579527450
C           51.83698488532514       68.38421522564654       63.86154676847583
C           50.91677753312221       67.19567267390363       64.17269274738591
C           51.02613034552362       66.88489302023949       65.66847659957229
C           51.25382803170232       65.93328429843019       63.36077694031352
C           50.44878018834786       65.71819227681840       62.07190016401610
C           48.95789090004943       65.55332471219099       62.36233418792490
C           50.97036334915226       64.47140805735978       61.34053459504569
C           50.69092621776137       64.47739908185896       59.83065712544199
C           50.69425519624844       63.04800689423035       59.29264409099314
C           51.74847683517551       65.32156328158655       59.10932774868896
C           51.35854313946521       65.80091168486521       57.70309075178920
C           52.62323642821441       66.07524166917118       56.89410069833161
C           50.47083920878703       67.04849335551879       57.79673848130272
C           50.08803977281233       67.72492892737722       56.47075607155488
C           49.24073412529772       68.95827958871484       56.78482364933539
C           49.35199934736639       66.76154798054357       55.53518288125767
C           49.00537467228448       67.29687297194194       54.13730231994207
C           48.08303922864566       66.29037862871115       53.45071341060331
C           50.27605492979157       67.53908887033097       53.31423959872954
C           50.06349920504798       68.03439913420951       51.87806073837405
C           51.41851618322505       68.21560539088782       51.19430070492350
C           49.21608324732340       69.31067407729189       51.77799207682067
C           49.75883508087456       70.52101944799593       52.53459708252112
C           48.83276423627910       71.72290806635526       52.38610333833655
H           52.67696822766931       56.91063337183528       73.64930531099475
H           51.00341508339381       56.55567067416058       74.06572726586879
H           51.39262290213550       57.21669499703367       72.47809880127355
H           48.72612821668753       71.99772097523945       51.33842867429937
H           47.84347377291656       71.49545488148883       52.77921486478026
H           49.22587463956974       72.58144544003115       52.92656712356624
H           49.12588374176130       69.57523603717014       50.72024052945526
H           48.20716290439867       69.09867464334323       52.14024115686028
H           50.90453607693332       68.26277033880051       53.83451545071139
H           50.83574946194972       66.60070079911827       53.26376907999532
H           48.46029992809012       68.23889924773350       54.24341081110691
H           47.74673248503905       66.65521720314949       52.48366792890730
H           48.59685875785274       65.34273768890139       53.30583451012882
H           47.20204256801598       66.10895167670876       54.06374646999831
H           49.95913999495146       65.86526559023343       55.39884994698095
H           48.42585848885672       66.45811465867305       56.02595925418844
H           49.55284784212309       66.78864092122784       58.32999751136937
H           50.99315573661807       67.79206453186404       58.40732887839501
H           49.52564197624682       67.25675479175342       51.32329511211988
H           52.02644466520253       68.94901432046032       51.71753413266202
H           51.96449496168336       67.27487965841604       51.18106882785244
H           51.28605343863570       68.54861900734798       50.16735131671182
H           51.00746215572036       68.06387490156214       55.98634024239962
H           48.28565189780884       68.66589749037391       57.21768637779700
H           49.75578285406682       69.60063281758978       57.49663690305421
H           49.04689223115751       69.54437062770090       55.89018186429706
H           50.79802908602844       65.00188038362273       57.20824078414823
H           53.25256605730071       65.18853873357024       56.86021934735936
H           52.38338480054700       66.36042875004946       55.87394630993339
H           53.19424736872728       66.88213889483198       57.34816810371924
H           51.99251813169545       66.19697081623949       59.71599887459649
H           52.65785046614551       64.72021724090793       59.03707133444003
H           49.70103235789215       64.91204821844762       59.65625959551070
H           50.48194238452794       63.02780570850652       58.22686823031969
H           51.66513440093070       62.58512485350258       59.45536278905394
H           49.94434030178359       62.44290693963854       59.79713636630233
H           52.04922372483247       64.38361258721488       61.48519639388063
H           50.51281123125823       63.58923203288168       61.79504314202371
H           50.57876650421793       66.58587194614431       61.41976328262287
H           48.41963169477325       65.30789388831273       61.45049028533977
H           48.79644607031020       64.75156882124823       63.08085442026694
H           48.52027536965133       66.46258153494759       62.76844220711433
H           52.31809298694353       65.95369125684310       63.11405729970011
H           51.08884579588798       65.05660202556965       63.99371769588888
H           49.88399176037268       67.49304188825563       63.97933027089509
H           50.79228154137880       67.76432521995703       66.26534282065177
H           50.33437084699965       66.09317145050331       65.94852742316462
H           52.03588923821797       66.56400010883787       65.91822670006430
H           52.86525209250946       68.08131271155797       64.07750146756244
H           51.58752796730621       69.19173519698792       64.55690720531221
H           52.10122460644821       68.18662831698774       61.73565945393801
H           50.06915737430545       70.21622770735127       62.77927080587610
H           50.38986705640616       69.88763948282002       61.07626865235364
H           49.68132150777878       68.64151516083841       62.08605156416429
H           53.75206886882727       69.78403716810595       62.81969544623316
H           52.42880953192262       70.92548477101877       63.01343350963066
H           52.16972547977237       70.90905080323070       60.47833609439094
H           53.29596689624633       72.68930827104926       61.81966539100678
H           54.83524793417939       71.85679232228210       61.61040140570574
H           53.98848580020786       72.53396451739673       60.21325376666407
H           53.33348554152300       68.79649098873888       60.01317528254613
H           54.80727229830621       69.41758683972508       60.74769952039770
H           54.99400126122568       71.09597382982820       58.91819909148281
H           56.13631823118747       68.88488415996493       58.93794144736951
H           54.81635157636467       68.20541970156836       57.98283337191928
H           55.85099200045506       69.46663043777291       57.30895268828175
H           52.55862010064559       71.16659838059591       58.31305507208290
H           52.68653244335268       69.51712583184724       57.70690342906612
H           54.41092317473618       70.37166754841428       56.04535408468220
H           52.11171997564450       69.84699816058568       55.40353140891555
H           51.56578439895663       71.44544802551127       55.90971851045335
H           52.65490811826648       71.27777403627395       54.53218591169877
H           54.73410791993762       72.57830477512567       57.39362707539916
H           53.23876284727820       73.09907645877334       56.64952200913248
H           54.95535302319022       72.02389645463329       54.57390191742554
H           53.15385014294259       73.70488282323254       54.25752928385361
H           54.11002480155290       74.89215771939273       55.14545317500447
H           54.69392348049639       74.26347935824732       53.60529645331604
H           56.24229375795409       74.19095468907182       56.27018987648513
H           56.79258098298014       73.68212639051670       54.67614219844774
H           56.74873449972416       71.91519805505814       57.15523496938043
H           57.84413423445287       71.41608247618794       54.35837871479495
H           58.17615927788097       70.39984262186655       55.76369561026723
H           56.53453026960214       70.54091180093107       55.14383735530455
H           58.43387192058911       73.99517438983554       56.79275185361872
H           59.25246235916274       72.82801005679555       55.76926232860526
H           59.12686955525033       71.23486307655982       57.83559021460272
H           61.20607270630601       72.30702607284159       56.97531814103613
H           60.85050598060558       73.75444071349138       57.91436798241626
H           61.22446319781307       72.23831353762073       58.73370668112288
H           57.46129728817988       72.84211464046506       58.99105008873231
H           58.82860082684854       73.91769146406347       59.22907685593825
H           59.93540123501720       71.85600045678983       60.43587770176408
H           57.59918968249264       73.38090468647098       61.66529417267619
H           58.92698276265562       72.62676156592612       62.55623840268742
H           59.24579864634813       73.98884656733256       61.49307484336312
H           58.19104603994631       70.26279706808272       59.67160183622016
H           56.98511174837135       71.12836178556323       60.60679473509065
H           59.35437248658200       70.32152092901079       62.20077022795839
H           56.37515720685522       69.81046261883432       62.58913534711122
H           57.63407751723820       69.65819655560752       63.81592175817572
H           57.22143159983245       71.24203437832027       63.16772018513342
H           57.56032735382379       68.22191726472057       60.94025076898590
H           58.49980278379379       67.93472201734180       62.39982617118540
H           59.82585561011688       68.81283714280036       59.81596171093290
H           61.12867518641024       69.10535289062921       61.92426000284434
H           60.89769336110558       67.39522575027465       62.28927468499367
H           61.83281462308389       67.88091782831117       60.87473740823923
H           59.17892186720551       66.03326265107103       60.86027101376686
H           60.48966538581416       66.32847015139301       59.72539422312597
H           57.60009253376166       67.05692928149121       59.12964518356272
H           58.40155256012911       67.15394507442879       56.79758892032527
H           59.27874558189741       68.30501540950650       57.79646164590368
H           60.04543471763622       66.78897529292340       57.33506439162261
H           59.18048763343390       64.51599218522020       58.75095587474308
H           57.98805975830703       64.95759500815359       57.53703122489934
H           57.21818739043876       64.89327562294024       60.46007750528670
H           55.74508352295328       65.98713677941764       58.70775886936246
H           55.60011994195997       64.41522176907405       57.92429744744815
H           54.96770630419230       64.66070841174350       59.55508528854882
H           58.26619612943230       62.70230446893419       59.81310657539986
H           57.11710746129638       62.57993952569134       58.48358825669185
H           55.24664701390218       62.53967724981892       60.12392731000205
H           57.38569606719820       60.40999289656451       60.49663783096322
H           55.67059182451667       60.22117245059992       60.87212292187625
H           56.18104621145004       60.46813257503489       59.20701413864634
H           57.37605527929627       63.23301215955266       62.00140245403734
H           56.61797334237164       61.73627885685102       62.50054738555479
H           54.98089619565224       64.19442467772866       61.80914590081542
H           54.37689212658055       61.73142912243662       63.49559307418987
H           53.24920664269727       63.03444931980167       63.12715928257094
H           53.81637104181786       61.97275716092672       61.83931073437433
H           56.23496228283468       63.35165833284666       64.43435650219379
H           54.78296742827614       64.33786675763685       64.39482520560594
H           57.23688258832492       65.21701787442224       62.85160250348190
H           56.19924936807088       67.43044122156732       63.12219331301292
H           55.03798366390328       66.32022283560924       62.40466150833762
H           54.91868955727517       66.73708163854596       64.11556929019982
H           56.59357048998056       65.67424405581421       65.78146543442602
H           57.68607535405847       66.70844676000813       64.87592317137327
H           58.19149269120142       63.72337149179734       64.98084586307327
H           60.04726855038945       66.11965039792571       64.67422172629765
H           60.50171942478142       64.41936948034689       64.56114457888809
H           59.44853264973226       65.12842884541691       63.34186383350315
H           58.90277743947447       65.83319779988472       67.04039299783415
H           59.82339887107482       64.34335678978893       66.87573916354066
H           56.83050671899148       64.19648297013404       67.23832971899175
H           57.31783991726076       62.00121978084730       68.13118631558159
H           58.23700238282604       62.17587885269100       66.64339172340674
H           59.04852062502903       62.34520297109155       68.19846661764288
H           57.62850007386000       65.71497380228199       68.97918205771906
H           58.93388944648075       64.60809971254298       69.39396417868915
H           57.28785580191614       62.95552563805320       70.21269205680358
H           56.70887908563898       64.25683175492320       72.26321295984923
H           58.35155368355379       64.58455894394105       71.72487935031036
H           57.07119663574819       65.75266474366255       71.40413729193000
H           55.37204786784756       63.88850464838482       68.71983696731273
H           55.20698898468538       65.14756999358011       69.93626450333133
H           54.91823206621943       63.21297789217158       71.63633021574560
H           53.10115511412460       64.71402862715463       70.84333012078419
H           52.79897129105274       63.63212686536512       69.48427907586471
H           52.50549704806873       63.08657781664646       71.13609726560723
H           55.77890629599482       61.44882780151019       70.08165140261738
H           54.39829611243591       61.73102986603615       69.02677732959698
H           52.87736869050412       60.95342373378298       70.82623083792706
H           53.43447568229235       58.57775452887194       70.52527767060081
H           53.79454382054323       59.46414040852371       69.04820337311740
H           55.10354734489671       58.99068510477421       70.12903426547562
H           54.26314933948621       61.51309943105385       72.78464197985291
H           55.49409713088743       60.36395354828401       72.26520018227910
H           53.94150181685443       58.49581912455857       72.67015717337375
H           55.50164566876956       59.38263624766920       74.41134424202369
H           54.19583547515767       60.37892860221096       75.05259627031404
H           54.08098199721857       58.61877255876359       75.11377392247412
H           51.81938029747636       59.68449185896904       72.23667593820116
H           52.07197565200808       60.68602898349874       73.66553140647262
H           51.82217150559202       58.69703417742756       75.11055367892530
H           49.41654750146093       58.34059892558076       74.68747824681363
H           49.83484683668490       60.03834309357635       74.45671439829334
H           49.58899034161148       58.99263576736960       73.05729417250568
H           49.86381938210899       70.28346449695375       53.59410396750539
H           50.74614639013618       70.78551954477392       52.15276651676037
C           65.29201050318650       60.11991144588241       53.50463918482812
C           63.81787773367291       60.35990686735106       53.81108760430111
C           63.67476736810396       61.11756453289023       55.13008652258063
C           63.02803629071749       59.04902918903645       53.88988247793410
C           62.95959508859700       58.21012875466688       52.60535359910526
C           62.23911984108440       58.96460020832143       51.49171428580265
C           62.25267073817324       56.88734826872923       52.92991094289227
C           62.24318672127737       55.83424935854632       51.81486734341552
C           61.41280752488080       54.63617297073272       52.27741667041460
C           63.66406474501404       55.39279406935601       51.41551659316755
C           64.11757729222427       55.88307476956225       50.03385383950158
C           63.31612086797654       55.19125265498289       48.93283532603176
C           65.61843125317502       55.61697314817881       49.84893063238822
C           66.23633043205497       56.30158100339599       48.61426798010348
C           66.99155550845863       55.27806018113393       47.76649515314931
C           67.18921043733340       57.45107726566550       48.97532786840740
C           66.55860139910189       58.58541228125806       49.78826354008041
C           65.53007378748858       59.35120324150353       48.95525959971202
C           67.60275502466446       59.59495796056805       50.28775931058042
C           68.73444479792069       59.08168809386427       51.19334624480275
C           68.26405774903246       58.03250128358547       52.19926572463302
C           69.34075382022331       60.24656508707125       51.99199844876638
C           69.93160283027117       61.40114872756459       51.17591558441011
C           71.30800040091957       61.02011844290095       50.63341785295064
C           70.04867552599131       62.66965221379127       52.03468384710266
C           68.72405523455626       63.38137741688924       52.35135979729900
C           68.10696037081949       63.97005282366670       51.08532169080812
C           68.98114600739923       64.47676232289010       53.39758311114992
C           67.73187517065398       65.09779139405165       54.03641923406363
C           68.11483112937603       66.39268798001606       54.75404464648352
C           66.96072874040804       64.15059093152426       54.97191991591677
C           67.74614659710593       63.56347659867813       56.15947584671208
C           68.14826253828303       62.11323200700836       55.88858300328760
C           66.92859679904751       63.61783068636876       57.45992569057565
C           66.81445259525179       65.01163901147804       58.08972229616162
C           68.11938797036504       65.40348055842892       58.78213848443638
C           65.65941423008705       65.05916160226984       59.10264934040248
C           64.27534700886358       65.24023505481887       58.46825951760352
C           64.06478115066574       66.69534715841498       58.04893487843432
C           63.15325150826627       64.83754339523310       59.43526671876296
C           62.96290888730034       63.33245521320762       59.66949372225722
C           62.46535056082649       62.65063386793590       58.39941862652827
C           61.97142618448618       63.13735890128204       60.82739761311066
C           61.71431349729578       61.68714613946725       61.26108290081493
C           60.50740670597801       61.64277831385733       62.19764622459149
C           62.94265846536558       61.07889903850803       61.94786283154958
C           62.98774262430371       59.54635617576272       61.90103098997401
C           64.00681407634697       59.04242514405514       62.92298990333136
C           63.31662652279677       59.04967273323027       60.47942793276908
C           62.35569717083558       57.97521051322905       59.95336081042772
C           62.57609515292057       56.66331074477652       60.69954540800636
C           62.54524220421061       57.78539427251162       58.44173882490388
C           61.51079983347712       56.86988573444121       57.75947904531068
C           62.21426361342083       55.88541627179472       56.82553694991196
C           60.45450043726409       57.65115613363391       56.96696919381596
C           59.47247120600839       58.48046753926599       57.80090509419417
C           58.74297220800097       57.61636121221953       58.83121511248527
C           58.40597584790495       59.14220805345323       56.91362513594113
C           58.88632674246657       60.09802974862602       55.81497824086232
C           59.71128861632727       61.24197480345698       56.39831649542016
C           57.67387137303894       60.66349067533855       55.05725915387386
C           57.09350249290941       59.71650919186562       53.99688456695862
C           57.84458754167213       59.87784387719588       52.67643058638582
C           55.59159909396390       59.97005387664603       53.79597807906402
C           54.72228040266062       59.27848281593605       54.85483107675301
C           54.52090588306394       57.80957766616832       54.48188764063294
C           53.34782609615560       59.94422404659045       55.01215484007177
C           53.33349794996752       61.33283568107615       55.66405599017705
C           53.82264151180250       61.27514894538487       57.11093304765917
C           51.91556558243202       61.92751727936965       55.65238186963931
C           51.37976444599865       62.34704316437446       54.28000434035067
C           52.12616861575582       63.57901705655303       53.76639301397388
C           49.87649789898621       62.66638647364292       54.31551097304724
C           48.92675842526805       61.54684955726496       54.76777248899179
C           49.22351641702427       60.23210859735374       54.04514282770370
C           47.45373403650390       61.94888471080979       54.52722624627081
C           46.63091269778793       62.22941824802442       55.79495039766333
C           45.14331783401471       62.10765855265985       55.46741936411934
C           46.96017993792692       63.61774094426966       56.35355130081444
C           46.25143531774792       64.01757510144655       57.65708558581778
C           46.51387603786206       65.49813937714205       57.93091792078318
C           46.73667090549107       63.14392885427376       58.81779834541443
C           46.17427653653522       63.47149490576154       60.20814410922196
C           46.90337227697286       62.60853633343606       61.23595178607912
C           44.65943516089832       63.24685586278903       60.25227313092861
C           43.98330304493376       63.48420544544520       61.60888691990314
C           42.48317031740406       63.22247403590588       61.47370228709374
C           44.25730536835086       64.87106633594306       62.20839067190010
C           43.78341216083980       66.05575623888993       61.36903971351757
C           44.17344319852403       67.38005976293894       62.01592857643814
H           65.73188796203631       59.46090309989272       54.25190426237202
H           65.41600357070408       59.66913027980505       52.52429052602957
H           65.84092838708574       61.06060456265212       53.51462037538488
H           43.82802463682904       68.21892470881542       61.41539902187895
H           43.73436925913185       67.46546576178626       63.00801924132791
H           45.25473484539170       67.45263687075789       62.11578661467969
H           43.76757603072452       64.92219896481753       63.18560523734365
H           45.32987505389133       64.97682256116381       62.38497107046177
H           44.18365445412000       63.89382537491979       59.51336596774109
H           44.45531146846531       62.21407694702766       59.95676365320307
H           46.38497908597596       64.51973499049984       60.43657124428495
H           46.68652545831680       61.55738366089712       61.06563930000490
H           47.97803185425996       62.75680798433115       61.15198833922179
H           46.60853641436287       62.86424113659930       62.25036741609034
H           46.49749627491948       62.10146241525855       58.59859663437078
H           47.82482895006884       63.22919995782120       58.86306162931984
H           48.03766885360601       63.68344582193556       56.51870361861593
H           46.70141314816048       64.35047350730237       55.58467880937118
H           44.37511900252041       62.74967610301099       62.32143745260498
H           41.97333571184255       63.40412469378179       62.41767265032544
H           42.04154188273669       63.86507997551432       60.71552695216363