3536
 energy: -3716.266732336717 gnorm: 0.000967183720 xtb: 6.6.1 (8d0f1dd)
C           51.65090861472016       57.25039353209822       73.53348066567439
C           51.47014594203488       58.66615795538600       74.07431619849596
C           49.98631774068571       59.03377009429970       74.06966049155689
C           52.24571085716581       59.69340963019322       73.24159259875380
C           53.75751043219452       59.46569314140126       73.13738850482667
C           54.42095626462283       59.46004568232694       74.51448780363172
C           54.41874492681337       60.55627662654090       72.28215491272222
C           53.93377020649488       60.67051406102501       70.83292865115949
C           54.07421045663927       59.34188173309381       70.09190929301910
C           54.72725723175363       61.74197500151756       70.07044193278989
C           54.60675010272396       63.18028826224781       70.58931787090938
C           53.16476890811154       63.68033446542910       70.50827019273648
C           55.52079077667008       64.11242662400153       69.77716457884289
C           57.01122247784528       64.00793564433428       70.12338703583110
C           57.30132153454851       64.68952530439682       71.46126989110884
C           57.89656716941902       64.65650832160604       69.04980832019062
C           57.83576352757323       64.04900438260219       67.64224865171772
C           58.12742989801262       62.55059300909737       67.65769993767761
C           58.83438604714257       64.78629314581239       66.73445929577612
C           58.47327722252194       64.74700435691079       65.24318993616795
C           59.69088475579402       65.12816826797270       64.40252566897769
C           57.29772606017388       65.68853141715964       64.94720657442544
C           56.52085010035665       65.35918948590654       63.66636578499072
C           55.61379293964646       66.53369793184008       63.30242439398152
C           55.68790563254468       64.08304542720424       63.83701087796999
C           55.29006440115626       63.41657169719012       62.51409222610294
C           54.10839193385748       62.48202305262555       62.75513964884746
C           56.46570798002377       62.64091429395954       61.90638589233991
C           56.25801859229675       62.25736724803614       60.42795709165489
C           56.38297105675800       60.74583611392889       60.23976226645439
C           57.25210413093451       62.96661821725169       59.49830065558614
C           57.12928145376979       64.49440085471581       59.44576019139456
C           55.77666809078158       64.91453635938905       58.87590123519371
C           58.25975464871076       65.08244491576261       58.58774168473005
C           58.54317890689318       66.56718829465082       58.87337199199996
C           59.10211671714358       67.24640431717043       57.62531412973303
C           59.51339085653360       66.69162540855370       60.05404437432631
C           59.69427287206828       68.10128021425440       60.63508350282694
C           60.96522563656612       68.12418690070956       61.48421413771311
C           58.47336142616533       68.50614742114384       61.46816806706699
C           58.38419438764939       70.00083426678292       61.80910189851237
C           57.34216099281732       70.19272029476244       62.91294799439733
C           58.04250993694830       70.85618807054249       60.57439483288123
C           58.87735980243445       72.13606583768018       60.43966828810184
C           58.64620881274260       73.08754304343502       61.61302903613764
C           58.54477826076340       72.86670908517314       59.12890952612261
C           59.23098644437059       72.32381030520081       57.86876380680753
C           60.71864998134743       72.67437280257391       57.87574143832386
C           58.57133597320956       72.92533365528213       56.61836339470663
C           57.22609692289865       72.28091027652100       56.24252363377162
C           57.45781147111214       71.08636494794257       55.32052407857320
C           56.31445342146624       73.33203438817870       55.59588303007909
C           54.88910580035829       72.87295050088474       55.25907585425647
C           54.16669856530392       74.00161283183377       54.52199815958983
C           54.10418515090709       72.44527083323133       56.51517669568258
C           53.61260306652974       70.99402696968016       56.45563549581549
C           52.41236206078391       70.88611158537890       55.51699408099070
C           53.23667506094623       70.45207546172283       57.84159237510300
C           54.41608613570870       70.17760785913525       58.78326025494318
C           55.36070793469226       69.11942271270748       58.21339398120119
C           53.92934535489989       69.69983901977406       60.16016897593209
C           53.11392089072731       70.69995219393473       60.98900147754838
C           53.85731785431166       72.02471638117977       61.16482311689823
C           52.80952052539577       70.11949183871977       62.37913400445373
C           51.79850343854718       68.96381859991239       62.43977061285410
C           50.40026173851241       69.45520953294506       62.07340499954157
C           51.83723391754299       68.38401516441994       63.86108500336395
C           50.91650615107980       67.19601217496786       64.17222567848242
C           51.02636514010049       66.88406630962403       65.66745109908246
C           51.25382300342874       65.93352057942965       63.36043123860976
C           50.44815809181807       65.71939222541990       62.07161927904741
C           48.95731351623154       65.55364396046618       62.36201421890848
C           50.97057529588294       64.47227137672130       61.34071380385690
C           50.69085457934463       64.47803112712400       59.83079614961970
C           50.69440367999899       63.04825482349005       59.29264065997896
C           51.74866981965447       65.32196210134292       59.10929055665203
C           51.35762447213267       65.80120671328264       57.70303365020416
C           52.62278863767215       66.07576445034664       56.89416366793772
C           50.47028343919468       67.04922362552888       57.79674221049459
C           50.08839784968447       67.72568949621062       56.47025989086995
C           49.24042710486914       68.95820544998244       56.78462138202030
C           49.35197030326006       66.76174879240070       55.53490330978316
C           49.00530481402098       67.29760225059445       54.13695354052265
C           48.08245421213213       66.29125054875009       53.45044318763714
C           50.27620496977131       67.53903503152368       53.31374601364428
C           50.06305321896584       68.03411327986285       51.87720327181330
C           51.41878162777346       68.21501752182172       51.19414657208672
C           49.21625955884360       69.31082831573589       51.77793027258410
C           49.76038091249543       70.52025818150943       52.53516526156940
C           48.83420346753024       71.72165490869061       52.38619847429230
H           52.67649298532256       56.91025275950283       73.64910770998135
H           51.00240336917630       56.55716655757193       74.06490872047331
H           51.39257874216725       57.21769323906388       72.47746916566724
H           48.72781155730959       71.99559250478299       51.33850897174375
H           47.84530556658853       71.49401076809197       52.77970107829356
H           49.22806728412218       72.57965869462771       52.92652079200474
H           49.12746493516926       69.57513063992357       50.72050406393654
H           48.20763360236457       69.09830161302486       52.13982998347765
H           50.90436958265615       68.26279630173062       53.83368934614199
H           50.83597205747356       66.60046476732137       53.26387629887579
H           48.46130172294306       68.23903964236442       54.24327343255317
H           47.74704145448308       66.65592926297973       52.48323497574238
H           48.59603321944203       65.34315088092900       53.30577014036103
H           47.20179650777881       66.11037341783151       54.06371174480446
H           49.95877070448624       65.86498439832468       55.39835961945100
H           48.42589483732278       66.45890886929388       56.02560415940156
H           49.55266507101376       66.78884961896067       58.32925537588480
H           50.99369996143557       67.79159923189739       58.40662455379185
H           49.52581584426097       67.25563896729139       51.32345908554132
H           52.02568106553971       68.94858890453713       51.71789287000497
H           51.96497411135766       67.27406209153210       51.18166708947398
H           51.28627315669493       68.54744300862716       50.16730586472453
H           51.00804896338555       68.06283116588945       55.98586342596722
H           48.28620427847045       68.66360507048252       57.21703390876093
H           49.75582936745758       69.59948824117495       57.49660389390622
H           49.04713551337179       69.54333510274066       55.88973417927411
H           50.79817509364547       65.00160477348869       57.20852090493661
H           53.25240988284619       65.18904516979131       56.86023447064323
H           52.38251983539906       66.36069928162911       55.87410466547464
H           53.19319027719585       66.88258063916093       57.34863099738246
H           51.99281230773202       66.19672562893489       59.71585451044640
H           52.65766068664767       64.72008141482736       59.03626023853941
H           49.70164399576560       64.91190505184802       59.65597228387019
H           50.48218812252749       63.02791313314568       58.22680518056333
H           51.66532053151878       62.58506042760254       59.45518531724851
H           49.94467102855436       62.44300647199297       59.79713693576179
H           52.04949497899083       64.38424948097672       61.48442790754078
H           50.51320332601489       63.58960803179480       61.79404067926614
H           50.57874100164556       66.58601595435788       61.41918603420198
H           48.41982018375067       65.30837874556356       61.44973296751039
H           48.79707828379299       64.75154215512372       63.08023416957268
H           48.52102957449792       66.46281536958153       62.76802964463887
H           52.31781083488580       65.95337048001527       63.11272845931163
H           51.08847733299689       65.05644292647442       63.99238597937230
H           49.88432617486495       67.49245508260570       63.97804369211893
H           50.79270597316178       67.76324374499512       66.26390807030738
H           50.33461279706514       66.09217774962656       65.94688795430484
H           52.03623804403530       66.56292781771612       65.91647775421480
H           52.86517189460033       68.08098777995326       64.07761997524486
H           51.58648437912957       69.19123288733006       64.55512672477535
H           52.10262891079751       68.18565128386030       61.73503757048275
H           50.07148994630614       70.21520595022164       62.77949385167992
H           50.39045569381160       69.88724475439449       61.07590476065553
H           49.68153357112678       68.64138619326114       62.08559487509051
H           53.75223267410727       69.78400124272962       62.81986491221156
H           52.42773258466205       70.92445550714761       63.01240266671210
H           52.16999734026405       70.90805997411994       60.47839305683170
H           53.29583362119774       72.68797985841910       61.81947996139482
H           54.83529250401029       71.85590004460424       61.61097649674522
H           53.98897930793093       72.53324105190583       60.21339479662649
H           53.33445264992383       68.79534668760799       60.01311004153269
H           54.80760552264429       69.41730373846855       60.74727095182370
H           54.99366741129516       71.09530014110395       58.91863321040157
H           56.13637279513865       68.88528814716614       58.93886081129735
H           54.81747163155725       68.20490249589358       57.98321166409389
H           55.85160285448996       69.46625091277147       57.30940477391828
H           52.55964196489397       71.16709347838420       58.31316539621682
H           52.68638645738524       69.51719438864357       57.70707400172202
H           54.41088331362381       70.37094479178857       56.04559565568513
H           52.11189943024119       69.84763993799805       55.40338528532355
H           51.56657224192210       71.44616401485879       55.91089193043528
H           52.65551059590101       71.27895564929405       54.53289886813941
H           54.73412004759587       72.57829029023175       57.39392011249004
H           53.23883475015047       73.09805452992615       56.64840958282014
H           54.95563684769265       72.02273339827867       54.57418255055173
H           53.15436926539132       73.70384293797161       54.25859064697894
H           54.11071222995300       74.89042449393052       55.14753668576168
H           54.69433499789438       74.26309070770391       53.60665975960020
H           56.24177845283633       74.18962859988589       56.27063065937002
H           56.79282663425239       73.68080948012482       54.67653194309148
H           56.74927034305646       71.91410018621879       57.15546985148950
H           57.84368871730670       71.41707748295011       54.35836488144096
H           58.17657191122201       70.39903637644659       55.76240440507740
H           56.53488180625506       70.54069161116838       55.14375242216180
H           58.43316975688453       73.99456866220066       56.79401672121434
H           59.25204516472221       72.82831083642428       55.76946155750831
H           59.12625369249156       71.23422699058402       57.83518091075273
H           61.20592771635654       72.30746621327957       56.97502909914312
H           60.84879446154202       73.75405506343964       57.91467688603495
H           61.22401207124719       72.23784636216975       58.73344896611438
H           57.46156600776209       72.84277014502455       58.99172238885357
H           58.83041159123734       73.91671974418817       59.22910796587373
H           59.93560354514808       71.85544187287232       60.43535113000379
H           57.59888210256069       73.37983774520096       61.66424490999033
H           58.92664948400616       72.62598741290543       62.55579253889412
H           59.24548170200447       73.98793831980220       61.49258816206315
H           58.19036455191083       70.26234042886517       59.67126823920864
H           56.98557381456769       71.12855768099232       60.60707770291306
H           59.35441983861438       70.32091789120767       62.20003189333022
H           56.37531690167790       69.81061786003225       62.58871919715702
H           57.63457337512799       69.65811963647354       63.81516958514343
H           57.22250279031702       71.24204193818578       63.16650490822745
H           57.56040821561506       68.22126630206165       60.94050469457386
H           58.50104651995525       67.93483305186069       62.39955758927577
H           59.82613972845019       68.81259414557179       59.81559092150404
H           61.12724759079938       69.10471741019167       61.92413228885585
H           60.89748581908650       67.39391513532399       62.28822748409249
H           61.83234429475209       67.88133940360392       60.87381777938319
H           59.17888931674041       66.03344155257859       60.85975481838851
H           60.48945823154560       66.32881501771348       59.72459357073719
H           57.60001114409284       67.05664907716809       59.12947863925528
H           58.40128350548861       67.15485541450877       56.79783071339676
H           59.27961897698439       68.30448841040797       57.79779576222530
H           60.04511688019258       66.78806351349695       57.33540971996695
H           59.18016653421357       64.51604026150808       58.75175050156944
H           57.98784908371291       64.95718567288270       57.53762694833979
H           57.21825217934910       64.89336197951438       60.46039254311044
H           55.74579029132765       65.98780591981088       58.70901830923400
H           55.60071827610580       64.41592755161915       57.92491821973464
H           54.96802217398302       64.66100831693070       59.55584725301355
H           58.26567110037642       62.70184055890584       59.81316494673837
H           57.11594324792166       62.58073590212039       58.48401658545388
H           55.24664874670166       62.54017041256971       60.12436055671365
H           57.38571295701178       60.41111171112227       60.49698188083138
H           55.67003636691123       60.22144569022081       60.87155271235764
H           56.18105980775724       60.46940473495226       59.20695800813244
H           57.37586031337538       63.23385809410637       62.00105274850732
H           56.61817245943474       61.73694595986921       62.50052563660358
H           54.98142285330258       64.19473023563839       61.80955588711351
H           54.37769030933953       61.73231519827299       63.49602455275805
H           53.24956180413669       63.03514291568990       63.12738569615489
H           53.81701578307926       61.97311622126284       61.83957492868533
H           56.23498227641397       63.35157614384951       64.43420638546935
H           54.78320789418603       64.33828040186995       64.39464463865458
H           57.23706954501740       65.21642456389357       62.85177096657225
H           56.19991933160743       67.43061915692918       63.12323958277001
H           55.03857384200348       66.32124313891958       62.40423438888775
H           54.91923610134989       66.73586865700987       64.11610268125096
H           56.59327332402592       65.67312948976510       65.78095126096214
H           57.68635188222166       66.70764088971123       64.87569796860657
H           58.19202063734718       63.72296139872656       64.98043041596459
H           60.04606739755540       66.12035103504626       64.67582239145186
H           60.50207389425255       64.42047136069658       64.56143174282128
H           59.44898164378260       65.12935602547195       63.34220757399427
H           58.90077855944848       65.83333388013141       67.03952709970859
H           59.82278633304202       64.34398013124832       66.87581817446302
H           56.83016644715429       64.19552974377241       67.23822477109587
H           57.31882045354278       62.00019094285699       68.13128058381317
H           58.23687263198347       62.17554101981224       66.64314487276053
H           59.04901596207908       62.34567833805853       68.19789896235790
H           57.62754211959753       65.71400325360352       68.97934590141789
H           58.93402420269845       64.60752162653729       69.39319026803577
H           57.28820876777992       62.95449986033493       70.21196023656431
H           56.70918395591794       64.25624489668937       72.26274382532578
H           58.35181646819289       64.58444367809530       71.72436605106716
H           57.07079495510133       65.75161432793206       71.40251536643839
H           55.37160802519517       63.88876093592942       68.71985658395570
H           55.20809203714931       65.14694447761872       69.93755279743681
H           54.91921303495892       63.21251722121689       71.63597759673176
H           53.10252537040893       64.71343547077980       70.84345396802821
H           52.79961238616956       63.63200265639362       69.48436205049980
H           52.50634477186572       63.08616313434150       71.13623668446824
H           55.77946347777122       61.44807320865922       70.08145634945517
H           54.39921298679057       61.73069370906030       69.02673290468580
H           52.87824849323620       60.95416139388207       70.82613943093008
H           53.43537598373457       58.57823281507613       70.52620477628190
H           53.79332952888399       59.46454299920595       69.04840745955649
H           55.10376697141777       58.99170891414700       70.12725663130027
H           54.26290985115671       61.51311395859793       72.78442548933647
H           55.49456094749651       60.36440691869299       72.26485715698512
H           53.94158932413185       58.49601414762021       72.66946431583902
H           55.50158758249511       59.38269792174069       74.41090268743000
H           54.19552459020333       60.37955470316791       75.05107789246958
H           54.08034410905012       58.61929585497549       75.11271915058109
H           51.81941226844964       59.68584149456033       72.23642889827882
H           52.07345435572635       60.68642806160414       73.66575330181612
H           51.82330149175622       58.69760498025524       75.10951227205219
H           49.41782884927483       58.34161752597917       74.68694969317896
H           49.83638465096172       60.03928229253898       74.45664784436283
H           49.58970970720173       58.99416801354254       73.05692425168169
H           49.86549004128624       70.28246969444989       53.59445613696148
H           50.74740413412265       70.78376243024114       52.15253555000274
C           65.29205687826639       60.12008018009929       53.50431348476081
C           63.81784993779262       60.36028086444287       53.81057142002698
C           63.67473189462660       61.11733715379420       55.13024289811887
C           63.02786936268647       59.04911124694076       53.88994285551574
C           62.96011498982993       58.21041575806714       52.60485977990842
C           62.23899806986572       58.96489728284816       51.49137366008750
C           62.25247124895998       56.88770127166131       52.92965649451918
C           62.24297580902362       55.83490000304450       51.81394318876956
C           61.41280821418503       54.63651680190656       52.27707487359768
C           63.66420289139170       55.39329039207172       51.41499589706613
C           64.11773070742865       55.88357261231558       50.03296811139283
C           63.31581812264935       55.19109723726955       48.93230481385717
C           65.61874326910369       55.61681968533605       49.84851917985171
C           66.23647214993574       56.30203802562215       48.61367841721193
C           66.99219891391029       55.27782795244273       47.76683916399101
C           67.18935723584909       57.45153494499422       48.97549194890435
C           66.55821431867160       58.58592036532084       49.78855201962534
C           65.53021085259448       59.35258477817536       48.95490492937036
C           67.60284541734407       59.59537051173528       50.28776667211014
C           68.73478728056237       59.08168868832588       51.19308343870044
C           68.26421807207943       58.03234968804733       52.19923683896479
C           69.34061221931475       60.24683327739145       51.99188742378072
C           69.93100336596741       61.40143868624158       51.17496456899670
C           71.30734613891781       61.01984044625280       50.63306166482252
C           70.04830488138776       62.66918812819058       52.03484924671633
C           68.72347272278385       63.38064862193480       52.35170445284623
C           68.10703736000907       63.97032977872856       51.08542040318689
C           68.98106920075050       64.47606999600228       53.39795488693033
C           67.73171528124905       65.09767994759905       54.03615762187873
C           68.11488852788706       66.39209894134264       54.75432597913126
C           66.95994513943243       64.15034566215309       54.97161324631976
C           67.74578364571521       63.56354592876602       56.15924253978415
C           68.14873130246222       62.11338062417062       55.88856131805405
C           66.92845014147153       63.61710445695942       57.45996054120325
C           66.81487054247434       65.01138890802298       58.08936382969339
C           68.11953611190825       65.40231708707374       58.78206457605080
C           65.66014244703567       65.05893160816845       59.10270982848783
C           64.27621807703916       65.24005460786678       58.46775997235288
C           64.06560461440233       66.69554083709880       58.04925040682618
C           63.15399329427603       64.83820606300385       59.43532554180393
C           62.96378182586035       63.33305777821522       59.66995659378262
C           62.46525334744051       62.65120123007897       58.39979708947208
C           61.97199116099053       63.13857213435428       60.82789804578061
C           61.71430714512831       61.68792977164203       61.26067982310263
C           60.50755262400015       61.64375217546802       62.19805412089359
C           62.94279265939040       61.07957875143502       61.94764293383582
C           62.98704877651198       59.54678800928694       61.90103531786618
C           64.00684186973287       59.04287188386058       62.92258824912601
C           63.31675894240152       59.05062289345828       60.47912484692816
C           62.35514871814992       57.97620052936284       59.95357661304395
C           62.57720926727451       56.66372708626113       60.69895648468341
C           62.54509368792728       57.78642550958495       58.44174157881505
C           61.51042740455384       56.87038342872528       57.76015981648262
C           62.21452204765802       55.88608076585015       56.82592434254179
C           60.45445815073568       57.65190474399795       56.96682245616785
C           59.47270072455260       58.48146248634387       57.80137972268329
C           58.74287926489021       57.61682180023399       58.83140535195030
C           58.40575157160576       59.14249418306718       56.91373186137369
C           58.88676590252735       60.09804495711561       55.81471302112694
C           59.71076648413684       61.24265681969101       56.39857309638929
C           57.67369405618404       60.66347431072817       55.05744296006915
C           57.09371625781617       59.71588886809162       53.99687748447671
C           57.84466477604841       59.87807919357776       52.67624443249291
C           55.59163748529387       59.97030415264380       53.79581203625490
C           54.72258145538974       59.27892140974824       54.85535499436190
C           54.52060901331719       57.81001657774776       54.48147990141182
C           53.34755631661626       59.94425586822472       55.01188619124012
C           53.33338132825252       61.33299983798041       55.66401362004623
C           53.82214075917953       61.27507899140648       57.11127991650099
C           51.91494703887717       61.92703227448214       55.65243421635796
C           51.37973633444535       62.34606230366769       54.27926584467276
C           52.12634516792231       63.57847641304613       53.76629519563858
C           49.87639816051510       62.66612397473588       54.31500563467404
C           48.92683299350508       61.54657329518945       54.76822985433322
C           49.22349935939466       60.23160002856260       54.04530014002516
C           47.45380392950127       61.94912362625541       54.52729051077036
C           46.63101804010807       62.22930300082749       55.79549790797529
C           45.14344425191500       62.10803521796623       55.46709675331395
C           46.96015228060435       63.61819415766691       56.35353438325847
C           46.25058506988550       64.01823492251692       57.65688286941025
C           46.51366076454054       65.49860399304524       57.93065181570631
C           46.73621625883070       63.14406888766143       58.81746309436802
C           46.17330806693241       63.47198614093234       60.20781692060380
C           46.90298813488756       62.60895626022343       61.23559362788029
C           44.65862498733494       63.24614096215797       60.25178530197868
C           43.98363135282031       63.48317753626068       61.60928325885938
C           42.48372149192275       63.22119453264510       61.47303781136645
C           44.25773734239127       64.87061820647909       62.20722165027818
C           43.78312833845516       66.05451434363671       61.36710437090291
C           44.17360127902877       67.37808716502146       62.01472606984167
H           65.73079379939871       59.46087733800911       54.25180501527319
H           65.41533635972365       59.66965049295720       52.52381245464888
H           65.83930562769946       61.06118617667732       53.51488136537930
H           43.82805765967678       68.21697254526045       61.41455713961426
H           43.73435815393404       67.46256136342815       63.00655314519969
H           45.25494128158795       67.45074614889059       62.11453934811447
H           43.76725797654240       64.92152637645280       63.18336993429152
H           45.33016113847973       64.97612370197062       62.38435778755650
H           44.18297614362390       63.89342918589097       59.51355323726074
H           44.45565092216289       62.21346186030863       59.95525920543360
H           46.38399135919886       64.51943588504837       60.43569150086947
H           46.68665202069981       61.55769645391135       61.06461834808992
H           47.97768651288819       62.75743390622909       61.15146557630997
H           46.60737744026828       62.86446024780874       62.24941242606196
H           46.49724489188097       62.10154013093570       58.59816526995387
H           47.82444380389934       63.22918406975059       58.86240166076136
H           48.03760866360694       63.68321424193124       56.51864091526294
H           46.70113681862098       64.34947936238942       55.58400972937939
H           44.37570482997018       62.74842052698497       62.32114079773874
H           41.97464766615904       63.40244439434494       62.41703567456254
H           42.04319940473652       63.86402433218525       60.71474556103314