3258
 energy: -3427.492903011149 gnorm: 0.000823251785 xtb: 6.6.1 (8d0f1dd)
C          112.86899534850872      128.72641805837830      102.53484474535101
C          111.72032737018368      127.87303307564588      103.05896763704999
C          111.15848189070994      128.42438778029324      104.36644685407896
C          109.93621356396764      127.66344691260210      104.88053926290742
C          110.19722663831222      126.22748502108122      105.34154068235655
C          111.16972403580156      126.13410306552703      106.51666444292492
C          111.18507958374497      124.75423724893032      107.18021442945962
C          109.96395637633101      124.50205968074111      108.06313866555148
C          110.08297566967748      123.21844833804555      108.88338263799638
C          108.89811540308747      123.05082080885018      109.83292332809978
C          109.06488117257481      121.93032180848436      110.85930726798587
C          109.12558822294450      120.53168850462821      110.25008561403776
C          109.05271373519298      119.41194942023425      111.29374649298489
C          110.12129216804475      119.53888573865112      112.38551180942565
C          110.66011362665384      118.21035339501080      112.92052500158104
C          109.61384415556182      117.25182965016012      113.48272435444417
C          110.28836869766546      116.03883602660305      114.12593879026251
C          109.30031506106008      114.93802438351335      114.50138810238440
C          109.96580841857708      113.79698202172047      115.26868570127688
C          109.00275024195753      112.63886595064238      115.52220658749279
C          109.59052857917236      111.57606572041759      116.44662466025315
C          108.66760194890102      110.36881708074742      116.59686033370181
C          109.18505569241751      109.37481252733272      117.63301666156224
C          108.30577359994244      108.13123522186385      117.73703411068450
C          108.78738293129874      107.18108012679603      118.83034338520075
C          107.90964432541287      105.93822681760071      118.95830420439638
C          108.45303640905053      104.95894830867613      119.99569935203758
C          107.50814990365659      103.78613394779262      120.25190842513771
C          108.17801095017232      102.69637534542626      121.08555834025151
C          107.24583357574245      101.53559680143908      121.43692888544172
C          106.34614409998771      101.85913981031416      122.62661086773763
C          105.44921971210620      100.69552031916946      123.05124410398948
C          104.38248635745265      100.29790274327910      122.02839524410891
C          103.46171779561442      101.45799568387233      121.65489471983329
C          102.20736584276545      101.00003613919840      120.91335934693744
C          101.38172074685914      102.16957952442009      120.37571548881319
C          100.83904943815777      103.07870934559384      121.47595537790556
C           99.97480616258134      104.20884787812572      120.92263263106379
C           99.51194869797743      105.15433685605484      122.03016589355164
C           98.54041990153526      106.22986452712871      121.54264542970293
C           99.17129707864713      107.29376990006085      120.64359319731862
C          100.01796339422795      108.32162126147442      121.39238057727383
C          100.58216438304976      109.36321913421898      120.42872146877350
C          101.25326145232528      110.54178849517642      121.12915808848611
C          101.77741381372610      111.56065591601075      120.11925501291256
C          102.28934920463860      112.84012299455773      120.77424760920255
C          102.73572575681891      113.86919669381780      119.73819748882140
C          103.21986504485889      115.16493294965551      120.38187135479748
C          103.60867126837773      116.21817181623204      119.34753072161416
C          104.12838171266066      117.49335853436463      120.00446050115860
C          104.48517044506676      118.57574516941563      118.98943027995516
C          105.04527119164956      119.82169401774416      119.66881500785215
C          105.39944768798959      120.92748499058192      118.67869311617599
C          105.98941261315919      122.14566784363164      119.38388336936485
C          106.40807944195566      123.23513089333686      118.40094703350555
C          106.88443902498263      124.51988877177966      119.07858266479568
C          108.11651456956970      124.32582681948406      119.96098620992917
C          108.69619266480109      125.66160936926056      120.42182579929853
C          109.93491719070548      125.50766246014766      121.30719731077265
C          111.18810980697234      125.12354970164436      120.52400829571290
C          112.39544338205542      124.90813624659957      121.43259560951192
C          113.67111744533118      124.63553158819539      120.63867735227478
C          114.85242086026251      124.31749116854576      121.55122134475604
C          116.14889474575612      124.03209609336106      120.79292207523334
C          116.15740593768443      122.67988306611153      120.08512373538476
C          117.52457705991458      122.37561420986501      119.47736344003431
C          117.59383058721134      121.02625373481827      118.76224303994634
C          117.41550401664124      119.84475860067676      119.71238508824564
C          117.74360022146448      118.50396156143530      119.06043579871091
C          117.37502491968435      117.34232154192277      119.97838687073106
C          117.72844345148079      115.98228741521939      119.38719099844323
C          117.30657822911303      114.83551294655898      120.30059081642349
C          117.64339999982971      113.46618502551208      119.71674933587374
C          117.45206769736990      112.35024889820741      120.74010880216413
C          117.80105981985567      110.97419568732390      120.17524375492694
C          118.14327979242465      109.95462667020665      121.26058942052737
C          116.96333048190070      109.57802981648317      122.15030976877102
C          117.37270058087289      108.57367094464909      123.22559434147205
C          116.16424411450048      107.98499121046370      123.94635706133911
C          116.51813632007934      106.86382355044779      124.92296979047778
C          117.21065678290145      107.34936092955652      126.19539169381976
C          117.44067882298333      106.22086329936695      127.20271609081377
C          118.58460754595590      105.29388173975526      126.79600512725177
C          118.71690838291214      104.05445579468315      127.68261126758435
C          117.51867192367301      103.10068663196093      127.64029195087835
C          117.15358570785520      102.64651822226317      126.22861435674535
C          116.07689907824414      101.56238794073705      126.23146591129095
C          115.60791785037324      101.19279384298055      124.82153027305215
C          114.69124296329015      102.25003399338448      124.20928119498276
C          114.33499846520651      101.93867056719492      122.75736880109312
C          113.27608314361667      102.88001841075280      122.18125434707987
C          113.72191627027395      104.33897081307165      122.17081285416437
C          112.72696773261120      105.26686313242115      121.47645667793250
C          113.21484611940531      106.70990073866419      121.55231310799485
C          112.33124766395085      107.72327358701338      120.83121495304253
C          112.91092243714938      109.12504907781172      120.99558160569293
C          112.09186180965189      110.22850462791563      120.33498757803710
C          112.78335626423033      111.57856535168395      120.51287711332471
C          111.93241552872577      112.75342127452819      120.04306434330874
C          112.66937539517136      114.09076553044991      120.12359444847178
C          113.18086078840996      114.41152973282287      121.52692786768493
C          113.62960581599484      115.86270634089860      121.66287978097880
C          114.21583490325740      116.15098133599399      123.04186296502201
C          114.79060450331029      117.56052667327899      123.15508024126639
C          115.36503323160125      117.82208330256954      124.54498337581899
C          116.02629766429953      119.19367045187470      124.69372912266007
C          117.26595783817088      119.41325635311615      123.82239253570012
C          118.36018911990615      118.37166150369821      124.05016612628414
C          119.67791073261581      118.76129977583255      123.38051006027774
C          120.73071870188359      117.65167099990400      123.45591819313299
C          120.46552416192263      116.52858656754708      122.45675352885902
C          121.45407831168168      115.37164690890201      122.57745047205654
C          121.15080137873048      114.28954842583180      121.54519833546148
C          122.05601156562102      113.06585986405811      121.65581411837739
C          121.63857493725934      111.99212510152358      120.65518672324913
C          122.50608353360246      110.73834937197726      120.70960609767347
C          121.97278973788657      109.65910223166685      119.77003412863074
C          122.88801739820254      108.44116546598144      119.68369030697846
C          122.24397540111585      107.30819103210520      118.88915690606575
C          123.16869350276068      106.10639934629819      118.74701533966198
H          121.32511459456893      106.99738388339583      119.39070346216420
H          121.96795442393540      107.67611873152529      117.89878757943774
H          123.83145869522805      108.72863098599605      119.21170192804475
H          123.12054497519243      108.08661207079263      120.69006471820015
H          120.98711402170468      109.34287816413341      120.11939025059564
H          121.84300884058065      110.08008924224654      118.76983658189505
H          123.53288661350273      110.99061468315138      120.43487519182017
H          122.52397132571717      110.35075500164093      121.73110948041020
H          120.60219646020326      111.71333974578130      120.85366438729032
H          121.67951750316838      112.40969297840492      119.64608923906300
H          123.09425086333569      113.35573908471973      121.47661561422537
H          122.00072207054041      112.65862299716247      122.66945239465404
H          120.11319284430895      113.97083236131110      121.66617562031654
H          121.24858397250003      114.71539496739896      120.54403571359353
H          122.47455794115534      115.73906124065846      122.43909970938475
H          121.39364991041724      114.94614897124350      123.58293131112562
H          119.45837810698922      116.13677601784694      122.60977894692230
H          120.51294572568307      116.93562003346354      121.44402966629109
H          121.71829818120024      118.07620561204061      123.25516916407427
H          120.75319036770458      117.24422838915717      124.47018722781617
H          119.49635051839174      119.00803862579731      122.33151255259948
H          120.06579852256631      119.66109353667395      123.86566012407759
H          118.52916247911293      118.25213708733195      125.12391815022768
H          118.02669229159952      117.41072185790073      123.65771663556241
H          116.98201572533991      119.41300423464926      122.76904735118414
H          117.66644939738809      120.40528041834743      124.04964195511796
H          115.29262025047971      119.96886898696346      124.45647846827626
H          116.31066970187402      119.32353084067149      125.74182637300642
H          114.55756231641283      117.74903493475753      125.27961070054643
H          116.09031429031755      117.04304590966429      124.78762416800325
H          115.57544016170557      117.68067857375263      122.40754718631680
H          114.00816967897511      118.29344196354732      122.94174084629122
H          113.44179092220563      116.01136714300247      123.80238546135423
H          115.01114260086676      115.42948842057423      123.24528698413386
H          114.38284736375891      116.07667475570140      120.90139877104716
H          112.78154007310064      116.52593004813731      121.47911093370689
H          112.39122132578925      114.21188506473256      122.25435694215740
H          114.02343025632614      113.76043940327421      121.76882642941858
H          113.51280142515922      114.08370182308104      119.42891794264824
H          111.98813506735672      114.88488065752577      119.80541455128760
H          111.61969153997045      112.58305932544162      119.00900000439923
H          111.02963994642182      112.80373924380291      120.65635054460813
H          113.01587184999693      111.70788922052887      121.57202277627424
H          113.72965846915203      111.57631689306250      119.96479233842581
H          111.96373404308171      110.01212435156835      119.27203364309329
H          111.09852112601116      110.26384032096412      120.78812543766858
H          113.00162908181116      109.34590550704227      122.06342236325054
H          113.92052205260694      109.13964390438466      120.57667109967851
H          112.26934363646660      107.47351615457858      119.76964001551320
H          111.31942882670360      107.68915430674038      121.23983841370897
H          113.28534340708789      106.99764209390626      122.60580133030486
H          114.22239058106672      106.76103394404514      121.13031566115778
H          112.61151030397791      104.96823954432047      120.43287236296261
H          111.74833597417238      105.18218910713195      121.95360092679341
H          113.85690686968054      104.68441046216549      123.19807148691524
H          114.69140915733320      104.41476553672520      121.67037042665324
H          113.05123402193004      102.56851045796614      121.15830280229532
H          112.35798065805608      102.78795537714427      122.76485485863620
H          115.24125836002570      101.99520891979408      122.14897836617926
H          113.96534181257341      100.91142340093261      122.69352649925833
H          113.77494524074702      102.31203757216458      124.80238533746783
H          115.18326949451928      103.22138955082937      124.25596320498903
H          116.48091230425844      101.05088205219364      124.17934528294063
H          115.07212212081599      100.24064884400916      124.86040658789329
H          116.47463238398849      100.67125400333013      126.72382583234236
H          115.21886300911267      101.90364946118700      126.81650275502608
H          116.79388378758358      103.50315370532520      125.65952732525477
H          118.04720204784913      102.26317242571672      125.72954847325504
H          117.76194316216773      102.22320727490357      128.24580269573431
H          116.64963170020614      103.57483735476737      128.10150362980835
H          119.60846863456779      103.50557766746546      127.36749899763227
H          118.87452809416035      104.36931242732800      128.71770525957950
H          118.45289664613594      104.97357087344226      125.76303271338874
H          119.52252511667278      105.85412328382914      126.84310633889227
H          117.66664270396126      106.64881435434380      128.18307063740681
H          116.51680366158055      105.64806548739573      127.30145558491307
H          118.16996429440673      107.80892626628635      125.95172048453702
H          116.58814675346238      108.11843631414145      126.66185045717829
H          115.59799065293299      106.34644417104101      125.20797787160477
H          117.15415577100850      106.13859462473198      124.41024856375024
H          115.63526411030323      108.77841090356546      124.47712395487578
H          115.48106767607773      107.58087189236696      123.19564318944079
H          117.93789554202044      107.76231772304159      122.76121761217291
H          118.03228968294721      109.06645987200534      123.94165388678199
H          116.55356273358768      110.47018729534700      122.62602916858147
H          116.17429549472294      109.14396962980125      121.53206283752907
H          118.51951926997155      109.04664001668786      120.78151504324947
H          118.94827079651127      110.35270274650449      121.88519573558172
H          116.97346334549434      110.60228313358526      119.56902895457743
H          118.66803872616210      111.07449760559862      119.51644657252437
H          118.09811084291553      112.55127731762659      121.59858146884952
H          116.41908870187548      112.35730130754315      121.09559250578334
H          117.01837756105483      113.27494141000160      118.84090943433894
H          118.68391347384762      113.46550191417695      119.38380740457391
H          117.81402716882394      114.95007949968576      121.26225096742333
H          116.23264635119992      114.89119012505536      120.49073386083438
H          117.24253080365750      115.87503965484343      118.41520840212516
H          118.80674820163769      115.92948037140947      119.22259196268607
H          117.88835246513233      117.46258565656206      120.93545951198514
H          116.29998101515683      117.38063561927289      120.17249104791937
H          117.19592228766629      118.40929603649887      118.11993515794448
H          118.80993330433152      118.46285329301691      118.82241898466440
H          118.06360648890355      119.98685004735631      120.58186954892913
H          116.38444750688264      119.81580128162632      120.07042161604801
H          116.82923712941272      120.98610319960568      117.98179519992780
H          118.56759318604075      120.94121751976436      118.27348527399764
H          117.77950609317671      123.16751181171800      118.76769010961397
H          118.27634147784705      122.39213625517326      120.27114690186090
H          115.89782610822283      121.90569105009527      120.80909519928564
H          115.40596439139604      122.67056971660359      119.29378755980763
H          116.32042772393967      124.82530949066607      120.06233909015685
H          116.97790959204592      124.05467701249047      121.50444788820489
H          115.01399364001753      125.16901715726807      122.21771190134885
H          114.60709635420852      123.45631558114765      122.17863824996540
H          113.49521323953445      123.80107212149794      119.95685704570091
H          113.91362581043771      125.51294656389156      120.03511779307919
H          112.54254051103736      125.79171701950625      122.05785199306453
H          112.19591596944568      124.06522709329265      122.10032879387245
H          111.00402163497195      124.20847545696272      119.95893747431127
H          111.41633935136615      125.91738114657269      119.80789191369439
H          110.12386143102464      126.45240744924170      121.82299064518496
H          109.73850419828833      124.75205028089867      122.07241293416772
H          108.95045648042550      126.26577366015800      119.54752811862456
H          107.92685176119350      126.20254430125124      120.97966650307676
H          107.85140204500414      123.73487656241424      120.84001832981485
H          108.87197406423323      123.77277503568034      119.40220535300413
H          107.12046253198825      125.25368448239591      118.30301445679069
H          106.07105342149747      124.93207275853764      119.68143736173455
H          107.20387285229741      122.84957675810615      117.75968538532014
H          105.55819274567709      123.47678984191570      117.75733592653702
H          105.25096245436890      122.55025042505514      120.08063785597399
H          106.85616334606482      121.82711571297264      119.96593441663563
H          106.12279198016959      120.54734982261733      117.95417699103763
H          104.50284189565139      121.22411569935170      118.12811776699533
H          104.31087050927239      120.20145776647212      120.38374423120713
H          105.94101436044380      119.54732149039091      120.23219521003759
H          105.22666508875766      118.18471381469573      118.28943249464832
H          103.59404246986537      118.84328120250376      118.41542742510649
H          103.36915007221940      117.88010300957239      120.68927494912592
H          105.01471836832680      117.25304112950047      120.59710100503101
H          104.38145451302303      115.81177685469245      118.69111628882300
H          102.74025170212747      116.45570097432049      118.72763494604364
H          102.42941208720271      115.56581858071432      121.02191762624757
H          104.08191538968660      114.94977935225488      121.01835848931300
H          103.54056201013543      113.44604726873555      119.13252334089646
H          101.90143174025961      114.08931576706074      119.06743514444815
H          101.49408060108607      113.27193704890421      121.38766453939124
H          103.12530114257659      112.60305848501002      121.43712399045671
H          102.58174300981041      111.10729645847870      119.53492765157752
H          100.97406000399849      111.81656844133258      119.42463568567696
H          100.52664826623673      111.02758214766627      121.78581775755134
H          102.07508789123258      110.18558840861115      121.75556610528352
H          101.29795235646834      108.88208262050878      119.75787400870720
H           99.76591105508568      109.74622405648145      119.81248457868551
H           99.39809251679256      108.82017388408023      122.14260581620088
H          100.83700851503545      107.82805546811076      121.91949204401979
H           99.78079891521278      106.81326102037791      119.87765839686749
H           98.36704617545531      107.82841932674386      120.13191667837128
H           97.73196510932860      105.73913714303212      120.99363125429174
H           98.09246744492138      106.72351174176282      122.40943474383724
H           99.01480053790455      104.56462928103484      122.80537540357696
H          100.38095106118676      105.62695382165658      122.49224444855008
H          100.54943663540882      104.76124677945262      120.17748979800210
H           99.10136473102303      103.78738097089231      120.41885152977086
H          100.25107093861965      102.48282332795226      122.17922431505276
H          101.67040038406061      103.51761672330095      122.02889736815386
H          102.00309937453463      102.75984095992598      119.69787016668336
H          100.54441603571618      101.77463667678893      119.79521577980010
H          102.49928683846308      100.36447967333885      120.07373723580184
H          101.58934058937133      100.39556745467152      121.58243686766485
H          103.16922724989963      101.97464312114046      122.57106663720549
H          104.00127733879503      102.16604078430328      121.02339571014357
H          104.85996581337361       99.89904631488353      121.13161564825846
H          103.78206581721871       99.49179183085360      122.45981777235841
H          106.07484675134718       99.82340406670980      123.26203237553024
H          104.94766622316268      100.96895899506985      123.98437925443132
H          106.98117151350112      102.12532349188650      123.47661123746236
H          105.73148484805243      102.73018914551044      122.39923781503967
H          106.63950675553723      101.28704367962270      120.56437802372032
H          107.84482660797966      100.65595078067626      121.68744690632207
H          109.03520466678864      102.31155871477870      120.52865950232814
H          108.55819527522716      103.13692052971001      122.00953347393055
H          106.61766263856926      104.14903236552340      120.76809844529903
H          107.18818162531834      103.36323642223653      119.29724693464328
H          109.42068720448610      104.57921809248431      119.65710239849977
H          108.62544533132579      105.48965722597593      120.93546369576092
H          106.89779644702460      106.23759421023877      119.24058243149184
H          107.84154773105934      105.43614702846538      117.98963200209312
H          109.81408054220236      106.87676687913860      118.61600896417357
H          108.79704624832927      107.71135932361818      119.78629767119075
H          107.27659985092077      108.43141970423376      117.94598164272617
H          108.30126306755990      107.60973041778801      116.77648224871041
H          110.20111682148429      109.07329213040322      117.36847702528648
H          109.23244877965487      109.86522023825052      118.60875494867683
H          107.67231032436040      110.70895016590219      116.89073453143219
H          108.56812827159298      109.86799419579606      115.63116434960764
H          110.55353379398551      111.24516953676114      116.05214633752269
H          109.77294719311047      112.01657320217849      117.43067433270514
H          108.08190690532602      113.02718317672687      115.96264549800888
H          108.73630692162999      112.17609289745313      114.56919566168645
H          110.82756516989575      113.43310439919316      114.70354893667339
H          110.34027536460991      114.17535364059373      116.22362903674413
H          108.49780001196882      115.36158093740369      115.10919942430952
H          108.84485760893193      114.54035560651118      113.59084338532362
H          111.02663112535306      115.62878010469483      113.43099598695663
H          110.82869830675338      116.36229669110591      115.01998810842322
H          108.99784781524015      117.76582993494911      114.22405930458346
H          108.95037992939147      116.91666231754202      112.68189913453037
H          111.20467793989850      117.69986047268378      112.12155369021194
H          111.38474710533346      118.43084797333471      113.71035257850362
H          110.97303083800723      120.08692625759369      111.97653708723345
H          109.72393906102238      120.12586292933969      113.21714776134456
H          108.06013886790409      119.41086430338476      111.75024366054861
H          109.16900889369336      118.45875560720266      110.77369008506652
H          108.29234463364257      120.41167383039473      109.55240396529746
H          110.04971112053093      120.42398376997620      109.67936587092208
H          109.96724627344025      122.11914244145498      111.44427851838769
H          108.21632379794637      121.97444904011201      111.54541301287558
H          108.75882410454233      123.98916461237567      110.37878732915682
H          107.98908872061631      122.87760465372557      109.25213588803017
H          110.14887440208916      122.35999408912667      108.21277203782607
H          111.00946951350764      123.25166433495650      109.46204878576340
H          109.84704812787368      125.34695394466509      108.74833620326481
H          109.06275587245764      124.45095077012212      107.44824517174366
H          111.25012012538286      123.98270963521593      106.41017818998611
H          112.08219806216255      124.67591688070749      107.80045193806272
H          112.17757848089344      126.36315322829280      106.16637801451573
H          110.90272915442203      126.88574483621190      107.26515697102330
H          109.23766030071266      125.79727687014289      105.63638655649412
H          110.57757045424329      125.63203912992566      104.50861109589246
H          109.51322683334486      128.22486113645894      105.71851950468640
H          109.18221117132182      127.64594845231998      104.08785297205704
H          111.93908769064568      128.42170702093702      105.12892464916985
H          110.86726302196988      129.46668978579046      104.20451880257995
H          110.92448379917421      127.83936852710569      102.31030094203382
H          112.07563708475355      126.85218882226873      103.21198978796434
H          113.68845955204274      128.74540454524089      103.25043210280832
H          113.24478315660284      128.33006174774590      101.59419114914859
H          112.53888769463931      129.74974159819519      102.36615218787632
H          124.08128428594526      106.38275612868257      118.22227158331364
H          123.44540744286243      105.71864038619064      119.72565141507971
H          122.68126062949987      105.30879214174837      118.19060339196395
C           95.80307774178193      113.55053190859843       97.55913634732826
C           97.13755099232989      114.25890170878795       97.36389616737854
C           98.18768066865039      113.32627970011752       96.76443383182568
C           99.55945272180539      113.98134840611806       96.60210216191662
C           99.57403567248443      115.09651343596286       95.55774714378379
C          100.98094004950467      115.59463178075679       95.22476619170055
C          101.69172687244354      116.25117518984590       96.40605231294180
C          103.04570594113467      116.82855444277186       96.00207077191718
C          103.81058613023026      117.38035205683333       97.20252398448912
C          105.21708866986012      117.86629240810910       96.84944945881560
C          106.17130160346785      116.71396576224139       96.54721787453182
C          107.60428333042326      117.16578742367156       96.27573706439549
C          108.47840826747922      115.97391188770965       95.89460764188161
C          109.94934457881105      116.32925445860582       95.70204008898082
C          110.75734608769537      115.09797891043755       95.29789919204853
C          112.26040271783546      115.35714533980340       95.28041091155113
C          113.05746267214481      114.09876278304185       94.94457933146724
C          114.55329323588157      114.26912257931811       95.19896778845960
C          115.32075148725491      112.96566501523546       94.99045064928418
C          116.77082254538131      113.05889220097501       95.45972188362870
C          117.49787252652574      111.72281895846307       95.32072936127896