      -----------------------------------------------------------      
     |                   =====================                   |     
     |                           x T B                           |     
     |                   =====================                   |     
     |                         S. Grimme                         |     
     |          Mulliken Center for Theoretical Chemistry        |     
     |                    University of Bonn                     |     
      -----------------------------------------------------------      

   * xtb version 6.6.1 (8d0f1dd) compiled by 'stahn@M-Bot' on 2023-08-01

   xtb is free software: you can redistribute it and/or modify it under
   the terms of the GNU Lesser General Public License as published by
   the Free Software Foundation, either version 3 of the License, or
   (at your option) any later version.
   
   xtb is distributed in the hope that it will be useful,
   but WITHOUT ANY WARRANTY; without even the implied warranty of
   MERCHANTABILITY or FITNESS FOR A PARTICULAR PURPOSE.  See the
   GNU Lesser General Public License for more details.
   
   Cite this work as:
   * C. Bannwarth, E. Caldeweyher, S. Ehlert, A. Hansen, P. Pracht,
     J. Seibert, S. Spicher, S. Grimme, WIREs Comput. Mol. Sci., 2020, 11,
     e01493. DOI: 10.1002/wcms.1493
   
   for GFN2-xTB:
   * C. Bannwarth, S. Ehlert and S. Grimme., J. Chem. Theory Comput., 2019,
     15, 1652-1671. DOI: 10.1021/acs.jctc.8b01176
   for GFN1-xTB:
   * S. Grimme, C. Bannwarth, P. Shushkov, J. Chem. Theory Comput., 2017,
     13, 1989-2009. DOI: 10.1021/acs.jctc.7b00118
   for GFN0-xTB:
   * P. Pracht, E. Caldeweyher, S. Ehlert, S. Grimme, ChemRxiv, 2019, preprint.
     DOI: 10.26434/chemrxiv.8326202.v1
   for GFN-FF:
   * S. Spicher and S. Grimme, Angew. Chem. Int. Ed., 2020, 59, 15665-15673.
     DOI: 10.1002/anie.202004239
   
   for ALPB and GBSA implicit solvation:
   * S. Ehlert, M. Stahn, S. Spicher, S. Grimme, J. Chem. Theory Comput.,
     2021, 17, 4250-4261. DOI: 10.1021/acs.jctc.1c00471
   
   for DFT-D4:
   * E. Caldeweyher, C. Bannwarth and S. Grimme, J. Chem. Phys., 2017,
     147, 034112. DOI: 10.1063/1.4993215
   * E. Caldeweyher, S. Ehlert, A. Hansen, H. Neugebauer, S. Spicher,
     C. Bannwarth and S. Grimme, J. Chem. Phys., 2019, 150, 154122.
     DOI: 10.1063/1.5090222
   * E. Caldeweyher, J.-M. Mewes, S. Ehlert and S. Grimme, Phys. Chem. Chem. Phys.
     2020, 22, 8499-8512. DOI: 10.1039/D0CP00502A
   
   for sTDA-xTB:
   * S. Grimme and C. Bannwarth, J. Chem. Phys., 2016, 145, 054103.
     DOI: 10.1063/1.4959605
   
   in the mass-spec context:
   * V. Asgeirsson, C. Bauer and S. Grimme, Chem. Sci., 2017, 8, 4879.
     DOI: 10.1039/c7sc00601b
   * J. Koopman and S. Grimme, ACS Omega 2019, 4, 12, 15120-15133.
     DOI: 10.1021/acsomega.9b02011
   
   for metadynamics refer to:
   * S. Grimme, J. Chem. Theory Comput., 2019, 155, 2847-2862
     DOI: 10.1021/acs.jctc.9b00143
   
   for SPH calculations refer to:
   * S. Spicher and S. Grimme, J. Chem. Theory Comput., 2021, 17, 1701-1714
     DOI: 10.1021/acs.jctc.0c01306
   
   with help from (in alphabetical order)
   P. Atkinson, C. Bannwarth, F. Bohle, G. Brandenburg, E. Caldeweyher
   M. Checinski, S. Dohm, S. Ehlert, S. Ehrlich, I. Gerasimov, C. Hölzer
   A. Katbashev, J. Koopman, C. Lavigne, S. Lehtola, F. März, M. Müller,
   F. Musil, H. Neugebauer, J. Pisarek, C. Plett, P. Pracht, F. Pultar,
   J. Seibert, P. Shushkov, S. Spicher, M. Stahn, M. Steiner, T. Strunk,
   J. Stückrath, T. Rose, and J. Unsleber
   
 * started run on 2024/07/11 at 05:08:18.295     

           -------------------------------------------------
          |                Calculation Setup                |
           -------------------------------------------------

          program call               : /home/abt-grimme/AK-bin/xtb input.xyz --input input.inp --opt --gbsa water
          hostname                   : boar025.thch.uni-bonn.de
          coordinate file            : input.xyz
          omp threads                :                     8

   ID    Z sym.   atoms
    1    6 C      1-146, 294-300, 306, 309-314, 323-468, 616-622, 628,
                  631-636, 645-790, 938-944, 950, 953-958, 967-1112,
                  1260-1266, 1272, 1275-1280, 1289-1434, 1582-1588, 1594,
                  1597-1602, 1611-1756, 1904-1910, 1916, 1919-1924,
                  1933-2078, 2226-2232, 2238, 2241-2246, 2255-2400,
                  2548-2554, 2560, 2563-2568, 2577-2722, 2870-2876, 2882,
                  2885-2890, 2899-3044, 3192-3198, 3204, 3207-3212,
                  3221-3366, 3514-3520, 3526, 3529-3534, 3543-3688,
                  3836-3842, 3848, 3851-3856
    2    1 H      147-293, 301-305, 307, 308, 315-322, 469-615, 623-627, 629,
                  630, 637-644, 791-937, 945-949, 951, 952, 959-966,
                  1113-1259, 1267-1271, 1273, 1274, 1281-1288, 1435-1581,
                  1589-1593, 1595, 1596, 1603-1610, 1757-1903, 1911-1915,
                  1917, 1918, 1925-1932, 2079-2225, 2233-2237, 2239, 2240,
                  2247-2254, 2401-2547, 2555-2559, 2561, 2562, 2569-2576,
                  2723-2869, 2877-2881, 2883, 2884, 2891-2898, 3045-3191,
                  3199-3203, 3205, 3206, 3213-3220, 3367-3513, 3521-3525,
                  3527, 3528, 3535-3542, 3689-3835, 3843-3847, 3849, 3850,
                  3857-3864

molecular fragmentation (1/2 indicates fragments):
111111111111111111111111111111111111111111111111111111111111111111111111
111111111111111111111111111111111111111111111111111111111111111111111111
111111111111111111111111111111111111111111111111111111111111111111111111
111111111111111111111111111111111111111111111111111111111111111111111111
111111111111111111111111111111111122222222222222222222222222222222222222
222222222222222222222222222222222222222222222222222222222222222222222222
222222222222222222222222222222222222222222222222222222222222222222222222
222222222222222222222222222222222222222222222222222222222222222222222222
222222222222222222222222222222222222222222222222222222222222222222222222
222222222222222222222222222222222222222222222222222222222222222222222222
222222222222222222222222222222222222222222222222222222222222222222222222
222222222222222222222222222222222222222222222222222222222222222222222222
222222222222222222222222222222222222222222222222222222222222222222222222
222222222222222222222222222222222222222222222222222222222222222222222222
222222222222222222222222222222222222222222222222222222222222222222222222
222222222222222222222222222222222222222222222222222222222222222222222222
222222222222222222222222222222222222222222222222222222222222222222222222
222222222222222222222222222222222222222222222222222222222222222222222222
222222222222222222222222222222222222222222222222222222222222222222222222
222222222222222222222222222222222222222222222222222222222222222222222222
222222222222222222222222222222222222222222222222222222222222222222222222
222222222222222222222222222222222222222222222222222222222222222222222222
222222222222222222222222222222222222222222222222222222222222222222222222
222222222222222222222222222222222222222222222222222222222222222222222222
222222222222222222222222222222222222222222222222222222222222222222222222
222222222222222222222222222222222222222222222222222222222222222222222222
222222222222222222222222222222222222222222222222222222222222222222222222
222222222222222222222222222222222222222222222222222222222222222222222222
222222222222222222222222222222222222222222222222222222222222222222222222
222222222222222222222222222222222222222222222222222222222222222222222222
222222222222222222222222222222222222222222222222222222222222222222222222
222222222222222222222222222222222222222222222222222222222222222222222222
222222222222222222222222222222222222222222222222222222222222222222222222
222222222222222222222222222222222222222222222222222222222222222222222222
222222222222222222222222222222222222222222222222222222222222222222222222
222222222222222222222222222222222222222222222222222222222222222222222222
222222222222222222222222222222222222222222222222222222222222222222222222
222222222222222222222222222222222222222222222222222222222222222222222222
222222222222222222222222222222222222222222222222222222222222222222222222
222222222222222222222222222222222222222222222222222222222222222222222222
222222222222222222222222222222222222222222222222222222222222222222222222
222222222222222222222222222222222222222222222222222222222222222222222222
222222222222222222222222222222222222222222222222222222222222222222222222
222222222222222222222222222222222222222222222222222222222222222222222222
222222222222222222222222222222222222222222222222222222222222222222222222
222222222222222222222222222222222222222222222222222222222222222222222222
222222222222222222222222222222222222222222222222222222222222222222222222
222222222222222222222222222222222222222222222222222222222222222222222222
222222222222222222222222222222222222222222222222222222222222222222222222
222222222222222222222222222222222222222222222222222222222222222222222222
222222222222222222222222222222222222222222222222222222222222222222222222
222222222222222222222222222222222222222222222222222222222222222222222222
222222222222222222222222222222222222222222222222222222222222222222222222
222222222222222222222222222222222222222222222222
# atoms in fragment 1/2:   322  3542
 fragment masses (1/2) :     2085.00    22935.05
CMA distance (Bohr)    :  29.999
constraining FC (au)   :  0.0500

           -------------------------------------------------
          |                 G F N 2 - x T B                 |
           -------------------------------------------------

        Reference                      10.1021/acs.jctc.8b01176
      * Hamiltonian:
        H0-scaling (s, p, d)           1.850000    2.230000    2.230000
        zeta-weighting                 0.500000
      * Dispersion:
        s8                             2.700000
        a1                             0.520000
        a2                             5.000000
        s9                             5.000000
      * Repulsion:
        kExp                           1.500000    1.000000
        rExp                           1.000000
      * Coulomb:
        alpha                          2.000000
        third order                    shell-resolved
        anisotropic                    true
        a3                             3.000000
        a5                             4.000000
        cn-shift                       1.200000
        cn-exp                         4.000000
        max-rad                        5.000000

      * Solvation model:               GBSA
        Solvent                        water
        Parameter file                 internal GFN2-xTB/GBSA
        Dielectric constant                8.0200E+01
        Reference state                gsolv [1 M gas/solution]
        Free energy shift                  1.8574E-03 Eh       1.1656E+00 kcal/mol
        Temperature                        2.9815E+02 K
        Density                            1.0000E+00 kg/L
        Solvent mass                       1.8000E+01 g/mol
        Interaction kernel             Still
        Born radius scaling (c1)           1.5524E+00
        Born radii integrator          GBOBC
        Born offset                        2.4628E-02 a0       4.6540E-02 AA
        H-bond correction              true
        Ion screening                  false
        Surface tension                    1.0000E-05 Eh       1.5569E+01 dyn/cm
        Grid points                               230 per atom
q/qsh data taken from xtbrestart
CAMM data taken from xtbrestart

          ...................................................
          :                      SETUP                      :
          :.................................................:
          :  # basis functions                9624          :
          :  # atomic orbitals                9624          :
          :  # shells                         5784          :
          :  # electrons                      9624          :
          :  max. iterations                   250          :
          :  Hamiltonian                  GFN2-xTB          :
          :  restarted?                       true          :
          :  GBSA solvation                   true          :
          :  PC potential                    false          :
          :  electronic temp.          300.0000000     K    :
          :  accuracy                    1.0000000          :
          :  -> integral cutoff          0.2500000E+02      :
          :  -> integral neglect         0.1000000E-07      :
          :  -> SCF convergence          0.1000000E-05 Eh   :
          :  -> wf. convergence          0.1000000E-03 e    :
          :  Broyden damping             0.4000000          :
          ...................................................

 iter      E             dE          RMSdq      gap      omega  full diag
   1  -5190.4767170 -0.519048E+04  0.915E-05    3.64       0.0  T
   2  -5190.4767170 -0.112241E-07  0.751E-05    3.64      21.4  T
   3  -5190.4767170 -0.790624E-08  0.626E-05    3.64      25.7  T

   *** convergence criteria satisfied after 3 iterations ***

         #    Occupation            Energy/Eh            Energy/eV
      -------------------------------------------------------------
         1        2.0000           -0.6330006             -17.2248
       ...           ...                  ...                  ...
      4806        2.0000           -0.3590885              -9.7713
      4807        2.0000           -0.3572342              -9.7208
      4808        2.0000           -0.3570036              -9.7146
      4809        2.0000           -0.3562305              -9.6935
      4810        2.0000           -0.3552137              -9.6659
      4811        2.0000           -0.3550074              -9.6602
      4812        2.0000           -0.3538473              -9.6287 (HOMO)
      4813                         -0.2199495              -5.9851 (LUMO)
      4814                         -0.2189071              -5.9568
      4815                         -0.2185554              -5.9472
      4816                         -0.2185455              -5.9469
      4817                         -0.2184204              -5.9435
       ...                                ...                  ...
      9624                          0.6726948              18.3050
      -------------------------------------------------------------
                  HL-Gap            0.1338977 Eh            3.6435 eV
             Fermi-level           -0.2868984 Eh           -7.8069 eV

 SCC (total)                   0 d,  0 h, 16 min, 41.647 sec
 SCC setup                      ...        0 min,  2.308 sec (  0.230%)
 Dispersion                     ...        0 min,  6.920 sec (  0.691%)
 classical contributions        ...        0 min,  0.163 sec (  0.016%)
 integral evaluation            ...        0 min, 11.825 sec (  1.181%)
 iterations                     ...       10 min, 36.919 sec ( 63.587%)
 molecular gradient             ...        5 min, 16.006 sec ( 31.549%)
 printout                       ...        0 min, 27.504 sec (  2.746%)

         :::::::::::::::::::::::::::::::::::::::::::::::::::::
         ::                     SUMMARY                     ::
         :::::::::::::::::::::::::::::::::::::::::::::::::::::
         :: total energy           -5103.331092540966 Eh    ::
         :: total w/o Gsasa/hb     -5103.149719438823 Eh    ::
         :: gradient norm              0.751467791088 Eh/a0 ::
         :: HOMO-LUMO gap              3.643542397352 eV    ::
         ::.................................................::
         :: SCC energy             -5190.476717014167 Eh    ::
         :: -> isotropic ES            0.320319619010 Eh    ::
         :: -> anisotropic ES          0.815195141227 Eh    ::
         :: -> anisotropic XC          3.452917239668 Eh    ::
         :: -> dispersion             -6.966926797884 Eh    ::
         :: -> Gsolv                  -0.224843009686 Eh    ::
         ::    -> Gelec               -0.043469907543 Eh    ::
         ::    -> Gsasa               -0.177189324052 Eh    ::
         ::    -> Ghb                 -0.006041221217 Eh    ::
         ::    -> Gshift               0.001857443127 Eh    ::
         :: repulsion energy          85.985954871053 Eh    ::
         :: add. restraining           0.000000000000 Eh    ::
         :: total charge              -0.000000000029 e     ::
         :::::::::::::::::::::::::::::::::::::::::::::::::::::

      ----------------------------------------------------------- 
     |              Fast Inertial Relaxation Engine              |
      ----------------------------------------------------------- 

          ...................................................
          :                      SETUP                      :
          :.................................................:
          :   energy convergence        0.5000000E-05 Eh    :
          :   grad. convergence         0.1000000E-02 Eh/a0 :
          :   optimization log               true           :
          :   writing optlog all                1     steps :
          :   Hessian reset                    20     steps :
          :   time step scaling                 5     steps :
          :   maximium step len.        1.0000000     a0    :
          :   initial time step         0.2500000     fs    :
          :   maximum time step         1.2500000     fs    :
          :   power reset thr           0.0000000     au    :
          :   alpha parameter           0.1000000           :
          :   BFGS update                   false           :
          :   preconditioning               false           :
          ...................................................

........................................................................
.............................. CYCLE    1 ..............................
........................................................................

 iter      E             dE          RMSdq      gap      omega  full diag
   1  -5190.6911822 -0.519069E+04  0.915E-03    3.66       0.0  T
   2  -5190.6912201 -0.378941E-04  0.561E-03    3.66       1.0  T
   3  -5190.6912100  0.101250E-04  0.303E-03    3.66       1.0  T
   4  -5190.6912293 -0.192620E-04  0.824E-04    3.66       2.0  T
   5  -5190.6912312 -0.194597E-05  0.292E-04    3.66       5.5  T
   6  -5190.6912313 -0.134481E-06  0.200E-04    3.66       8.0  T
   7  -5190.6912314 -0.649761E-07  0.147E-04    3.66      11.0  T
     SCC iter.                  ...       24 min, 36.831 sec
     gradient                   ...        5 min, 16.160 sec
 * total energy  : -5103.3943768 Eh     change    :  -0.6328431E-01 Eh
   gradient norm :     0.6900720 Eh/a0  converged?    E=F G=F D=F
   time step     :     0.2500000 fs     power     :   0.3215044E-05
   step length   :     0.0880704 a0     speed     :   0.8521287E-02

........................................................................
.............................. CYCLE    2 ..............................
........................................................................

 iter      E             dE          RMSdq      gap      omega  full diag
   1  -5191.0067873 -0.519101E+04  0.133E-02    3.68       0.0  T
   2  -5191.0068680 -0.806940E-04  0.816E-03    3.67       1.0  T
   3  -5191.0068470  0.209877E-04  0.438E-03    3.68       1.0  T
   4  -5191.0068871 -0.400659E-04  0.121E-03    3.67       1.3  T
   5  -5191.0068913 -0.417794E-05  0.445E-04    3.67       3.6  T
   6  -5191.0068916 -0.308948E-06  0.316E-04    3.67       5.1  T
   7  -5191.0068918 -0.173831E-06  0.235E-04    3.67       6.8  T
     SCC iter.                  ...       24 min, 39.621 sec
     gradient                   ...        5 min, 17.058 sec
 * total energy  : -5103.4772307 Eh     change    :  -0.8285386E-01 Eh
   gradient norm :     0.6048099 Eh/a0  converged?    E=F G=F D=F
   time step     :     0.2500000 fs     power     :   0.4095531E-05
   step length   :     0.1284064 a0     speed     :   0.1242401E-01

........................................................................
.............................. CYCLE    3 ..............................
........................................................................

 iter      E             dE          RMSdq      gap      omega  full diag
   1  -5191.4159242 -0.519142E+04  0.169E-02    3.69       0.0  T
   2  -5191.4160537 -0.129494E-03  0.103E-02    3.69       1.0  T
   3  -5191.4160202  0.334985E-04  0.550E-03    3.70       1.0  T
   4  -5191.4160831 -0.629544E-04  0.153E-03    3.69       1.1  T
   5  -5191.4160899 -0.676926E-05  0.571E-04    3.69       2.8  T
   6  -5191.4160904 -0.499839E-06  0.412E-04    3.69       3.9  T
   7  -5191.4160907 -0.305746E-06  0.308E-04    3.69       5.2  T
     SCC iter.                  ...       24 min, 37.816 sec
     gradient                   ...        5 min, 18.717 sec
 * total energy  : -5103.5669775 Eh     change    :  -0.8974676E-01 Eh
   gradient norm :     0.5040508 Eh/a0  converged?    E=F G=F D=F
   time step     :     0.2500000 fs     power     :   0.4285915E-05
   step length   :     0.1636279 a0     speed     :   0.1583187E-01

........................................................................
.............................. CYCLE    4 ..............................
........................................................................

 iter      E             dE          RMSdq      gap      omega  full diag
   1  -5191.9103410 -0.519191E+04  0.197E-02    3.70       0.0  T
   2  -5191.9105149 -0.173892E-03  0.121E-02    3.71       1.0  T
   3  -5191.9104692  0.456157E-04  0.630E-03    3.71       1.0  T
   4  -5191.9105523 -0.830931E-04  0.178E-03    3.70       1.0  T
   5  -5191.9105616 -0.922540E-05  0.667E-04    3.70       2.4  T
   6  -5191.9105622 -0.663592E-06  0.488E-04    3.70       3.3  T
   7  -5191.9105627 -0.442740E-06  0.365E-04    3.70       4.4  T
     SCC iter.                  ...       24 min, 34.504 sec
     gradient                   ...        5 min, 16.373 sec
 * total energy  : -5103.6510565 Eh     change    :  -0.8407904E-01 Eh
   gradient norm :     0.4024977 Eh/a0  converged?    E=F G=F D=F
   time step     :     0.2500000 fs     power     :   0.3831712E-05
   step length   :     0.1924296 a0     speed     :   0.1861859E-01

........................................................................
.............................. CYCLE    5 ..............................
........................................................................

 iter      E             dE          RMSdq      gap      omega  full diag
   1  -5192.4814572 -0.519248E+04  0.216E-02    3.71       0.0  T
   2  -5192.4816588 -0.201625E-03  0.132E-02    3.71       1.0  T
   3  -5192.4816036  0.552526E-04  0.671E-03    3.71       1.0  T
   4  -5192.4816992 -0.956419E-04  0.192E-03    3.71       1.0  T
   5  -5192.4817102 -0.109586E-04  0.729E-04    3.71       2.2  T
   6  -5192.4817109 -0.757292E-06  0.540E-04    3.71       3.0  T
   7  -5192.4817115 -0.558576E-06  0.402E-04    3.71       4.0  T
     SCC iter.                  ...       24 min, 38.472 sec
     gradient                   ...        5 min, 18.299 sec
 * total energy  : -5103.7199102 Eh     change    :  -0.6885369E-01 Eh
   gradient norm :     0.3237469 Eh/a0  converged?    E=F G=F D=F
   time step     :     0.2500000 fs     power     :   0.2934042E-05
   step length   :     0.2136698 a0     speed     :   0.2067370E-01

........................................................................
.............................. CYCLE    6 ..............................
........................................................................

 iter      E             dE          RMSdq      gap      omega  full diag
   1  -5193.1865937 -0.519319E+04  0.246E-02    3.71       0.0  T
   2  -5193.1868373 -0.243655E-03  0.149E-02    3.71       1.0  T
   3  -5193.1867645  0.728493E-04  0.727E-03    3.71       1.0  T
   4  -5193.1868809 -0.116442E-03  0.212E-03    3.71       1.0  T
   5  -5193.1868947 -0.137694E-04  0.814E-04    3.71       2.0  T
   6  -5193.1868956 -0.881343E-06  0.606E-04    3.71       2.7  T
   7  -5193.1868963 -0.726307E-06  0.445E-04    3.71       3.6  T
     SCC iter.                  ...       24 min, 32.264 sec
     gradient                   ...        5 min, 15.842 sec
 * total energy  : -5103.7737274 Eh     change    :  -0.5381715E-01 Eh
   gradient norm :     0.2947613 Eh/a0  converged?    E=F G=F D=F
   time step     :     0.2750000 fs     power     :   0.1812159E-05
   step length   :     0.2502223 a0     speed     :   0.2200941E-01

........................................................................
.............................. CYCLE    7 ..............................
........................................................................

 iter      E             dE          RMSdq      gap      omega  full diag
   1  -5194.0161546 -0.519402E+04  0.261E-02    3.72       0.0  T
   2  -5194.0163900 -0.235400E-03  0.157E-02    3.72       1.0  T
   3  -5194.0163108  0.791873E-04  0.700E-03    3.72       1.0  T
   4  -5194.0164253 -0.114465E-03  0.212E-03    3.72       1.0  T
   5  -5194.0164395 -0.141821E-04  0.842E-04    3.72       1.9  T
   6  -5194.0164404 -0.887126E-06  0.622E-04    3.71       2.6  T
   7  -5194.0164412 -0.824272E-06  0.449E-04    3.71       3.6  T
     SCC iter.                  ...       24 min, 33.937 sec
     gradient                   ...        5 min, 18.554 sec
 * total energy  : -5103.8108385 Eh     change    :  -0.3711117E-01 Eh
   gradient norm :     0.3260865 Eh/a0  converged?    E=F G=F D=F
   time step     :     0.3025000 fs     power     :   0.9268748E-06
   step length   :     0.2784431 a0     speed     :   0.2226518E-01

........................................................................
.............................. CYCLE    8 ..............................
........................................................................

 iter      E             dE          RMSdq      gap      omega  full diag
   1  -5194.9328588 -0.519493E+04  0.259E-02    3.73       0.0  T
   2  -5194.9330329 -0.174128E-03  0.154E-02    3.73       1.0  T
   3  -5194.9329734  0.595089E-04  0.566E-03    3.73       1.0  T
   4  -5194.9330525 -0.790770E-04  0.186E-03    3.72       1.0  T
   5  -5194.9330637 -0.111843E-04  0.794E-04    3.72       2.0  T
   6  -5194.9330645 -0.804152E-06  0.555E-04    3.72       2.9  T
   7  -5194.9330652 -0.745143E-06  0.393E-04    3.72       4.1  T
     SCC iter.                  ...       24 min, 37.696 sec
     gradient                   ...        5 min, 19.156 sec
 * total energy  : -5103.8399882 Eh     change    :  -0.2914971E-01 Eh
   gradient norm :     0.3718949 Eh/a0  converged?    E=F G=F D=F
   time step     :     0.3327500 fs     power     :   0.6433573E-06
   step length   :     0.2976848 a0     speed     :   0.2163982E-01

........................................................................
.............................. CYCLE    9 ..............................
........................................................................

 iter      E             dE          RMSdq      gap      omega  full diag
   1  -5195.8920421 -0.519589E+04  0.253E-02    3.74       0.0  T
   2  -5195.8921447 -0.102637E-03  0.148E-02    3.74       1.0  T
   3  -5195.8921263  0.184468E-04  0.367E-03    3.74       1.0  T
   4  -5195.8921548 -0.285249E-04  0.131E-03    3.74       1.2  T
   5  -5195.8921595 -0.468272E-05  0.684E-04    3.74       2.4  T
   6  -5195.8921601 -0.633523E-06  0.421E-04    3.73       3.8  T
   7  -5195.8921606 -0.484667E-06  0.301E-04    3.73       5.3  T
     SCC iter.                  ...       24 min, 33.915 sec
     gradient                   ...        5 min, 14.454 sec
 * total energy  : -5103.8751222 Eh     change    :  -0.3513393E-01 Eh
   gradient norm :     0.3853866 Eh/a0  converged?    E=F G=F D=F
   time step     :     0.3660250 fs     power     :   0.8976776E-06
   step length   :     0.3167823 a0     speed     :   0.2093463E-01

........................................................................
.............................. CYCLE   10 ..............................
........................................................................

 iter      E             dE          RMSdq      gap      omega  full diag
   1  -5196.8477157 -0.519685E+04  0.259E-02    3.76       0.0  T
   2  -5196.8477927 -0.769557E-04  0.151E-02    3.75       1.0  T
   3  -5196.8477608  0.319375E-04  0.411E-03    3.75       1.0  T
   4  -5196.8478062 -0.454474E-04  0.108E-03    3.75       1.5  T
   5  -5196.8478088 -0.256135E-05  0.545E-04    3.75       3.0  T
   6  -5196.8478091 -0.302757E-06  0.347E-04    3.75       4.6  T
   7  -5196.8478093 -0.240695E-06  0.220E-04    3.75       7.3  T
     SCC iter.                  ...       24 min, 36.259 sec
     gradient                   ...        5 min, 17.212 sec
 * total energy  : -5103.9237544 Eh     change    :  -0.4863228E-01 Eh
   gradient norm :     0.3415922 Eh/a0  converged?    E=F G=F D=F
   time step     :     0.4026275 fs     power     :   0.1218036E-05
   step length   :     0.3456173 a0     speed     :   0.2076382E-01

........................................................................
.............................. CYCLE   11 ..............................
........................................................................

 iter      E             dE          RMSdq      gap      omega  full diag
   1  -5197.7495035 -0.519775E+04  0.288E-02    3.77       0.0  T
   2  -5197.7496394 -0.135907E-03  0.170E-02    3.77       1.0  T
   3  -5197.7495282  0.111209E-03  0.700E-03    3.76       1.0  T
   4  -5197.7496777 -0.149465E-03  0.139E-03    3.76       1.2  T
   5  -5197.7496822 -0.449994E-05  0.580E-04    3.76       2.8  T
   6  -5197.7496829 -0.745990E-06  0.279E-04    3.76       5.8  T
   7  -5197.7496830 -0.459768E-07  0.131E-04    3.76      12.3  T
     SCC iter.                  ...       24 min, 37.349 sec
     gradient                   ...        5 min, 14.543 sec
 * total energy  : -5103.9753275 Eh     change    :  -0.5157308E-01 Eh
   gradient norm :     0.2425352 Eh/a0  converged?    E=F G=F D=F
   time step     :     0.4428903 fs     power     :   0.9695389E-06
   step length   :     0.3866104 a0     speed     :   0.2111507E-01

........................................................................
.............................. CYCLE   12 ..............................
........................................................................

 iter      E             dE          RMSdq      gap      omega  full diag
   1  -5198.5402897 -0.519854E+04  0.326E-02    3.77       0.0  T
   2  -5198.5405452 -0.255581E-03  0.196E-02    3.77       1.0  T
   3  -5198.5403748  0.170494E-03  0.945E-03    3.77       1.0  T
   4  -5198.5406233 -0.248568E-03  0.184E-03    3.77       1.0  T
   5  -5198.5406320 -0.871564E-05  0.682E-04    3.77       2.4  T
   6  -5198.5406330 -0.992981E-06  0.355E-04    3.77       4.5  T
   7  -5198.5406331 -0.106182E-06  0.216E-04    3.77       7.5  T
     SCC iter.                  ...       24 min, 36.227 sec
     gradient                   ...        5 min, 15.288 sec
 * total energy  : -5104.0006835 Eh     change    :  -0.2535601E-01 Eh
   gradient norm :     0.1722075 Eh/a0  converged?    E=F G=F D=F
   time step     :     0.4871793 fs     power     :  -0.1242023E-06
   step length   :     0.4268946 a0     speed     :   0.2119566E-01

........................................................................
.............................. CYCLE   13 ..............................
........................................................................
 * reset velocities

 iter      E             dE          RMSdq      gap      omega  full diag
   1  -5198.5266863 -0.519853E+04  0.929E-04    3.77       0.0  T
   2  -5198.5266867 -0.442212E-06  0.563E-04    3.77       2.9  T
   3  -5198.5266867  0.154159E-08  0.270E-04    3.77       6.0  T
     SCC iter.                  ...       10 min, 36.012 sec
     gradient                   ...        5 min, 15.185 sec
 * total energy  : -5104.0023093 Eh     change    :  -0.1625782E-02 Eh
   gradient norm :     0.1671464 Eh/a0  converged?    E=F G=F D=F
   time step     :     0.2435896 fs     power     :   0.8721419E-07
   step length   :     0.0095803 a0     speed     :   0.9513400E-03

........................................................................
.............................. CYCLE   14 ..............................
........................................................................

 iter      E             dE          RMSdq      gap      omega  full diag
   1  -5198.4990717 -0.519850E+04  0.182E-03    3.77       0.0  T
   2  -5198.4990732 -0.154388E-05  0.110E-03    3.77       1.5  T
   3  -5198.4990731  0.808450E-07  0.466E-04    3.77       3.4  T
   4  -5198.4990734 -0.250177E-06  0.150E-04    3.77      10.8  T
     SCC iter.                  ...       14 min,  4.185 sec
     gradient                   ...        5 min, 15.047 sec
 * total energy  : -5104.0053710 Eh     change    :  -0.3061712E-02 Eh
   gradient norm :     0.1573841 Eh/a0  converged?    E=F G=F D=F
   time step     :     0.2435896 fs     power     :   0.1616390E-06
   step length   :     0.0188781 a0     speed     :   0.1874629E-02

........................................................................
.............................. CYCLE   15 ..............................
........................................................................

 iter      E             dE          RMSdq      gap      omega  full diag
   1  -5198.4583483 -0.519846E+04  0.262E-03    3.76       0.0  T
   2  -5198.4583516 -0.325961E-05  0.158E-03    3.77       1.0  T
   3  -5198.4583513  0.268463E-06  0.723E-04    3.77       2.2  T
   4  -5198.4583520 -0.683861E-06  0.221E-04    3.77       7.3  T
     SCC iter.                  ...       14 min,  4.272 sec
     gradient                   ...        5 min, 14.943 sec
 * total energy  : -5104.0095213 Eh     change    :  -0.4150218E-02 Eh
   gradient norm :     0.1438533 Eh/a0  converged?    E=F G=F D=F
   time step     :     0.2435896 fs     power     :   0.2153858E-06
   step length   :     0.0276252 a0     speed     :   0.2743226E-02

........................................................................
.............................. CYCLE   16 ..............................
........................................................................

 iter      E             dE          RMSdq      gap      omega  full diag
   1  -5198.4053480 -0.519841E+04  0.335E-03    3.76       0.0  T
   2  -5198.4053532 -0.519924E-05  0.202E-03    3.76       1.0  T
   3  -5198.4053527  0.494616E-06  0.914E-04    3.76       1.8  T
   4  -5198.4053538 -0.113806E-05  0.283E-04    3.76       5.7  T
   5  -5198.4053540 -0.205014E-06  0.110E-04    3.76      14.6  T
     SCC iter.                  ...       17 min, 34.141 sec
     gradient                   ...        5 min, 15.482 sec
 * total energy  : -5104.0143181 Eh     change    :  -0.4796884E-02 Eh
   gradient norm :     0.1279486 Eh/a0  converged?    E=F G=F D=F
   time step     :     0.2435896 fs     power     :   0.2442987E-06
   step length   :     0.0355900 a0     speed     :   0.3534148E-02

........................................................................
.............................. CYCLE   17 ..............................
........................................................................

 iter      E             dE          RMSdq      gap      omega  full diag
   1  -5198.3411862 -0.519834E+04  0.396E-03    3.76       0.0  T
   2  -5198.3411934 -0.715924E-05  0.238E-03    3.76       1.0  T
   3  -5198.3411927  0.658370E-06  0.105E-03    3.76       1.5  T
   4  -5198.3411942 -0.148654E-05  0.328E-04    3.76       4.9  T
   5  -5198.3411945 -0.276742E-06  0.126E-04    3.76      12.7  T
   6  -5198.3411945 -0.216369E-07  0.933E-05    3.76      17.2  T
     SCC iter.                  ...       21 min,  5.839 sec
     gradient                   ...        5 min, 15.973 sec
 * total energy  : -5104.0193036 Eh     change    :  -0.4985482E-02 Eh
   gradient norm :     0.1115788 Eh/a0  converged?    E=F G=F D=F
   time step     :     0.2435896 fs     power     :   0.2487395E-06
   step length   :     0.0425865 a0     speed     :   0.4228904E-02

........................................................................
.............................. CYCLE   18 ..............................
........................................................................

 iter      E             dE          RMSdq      gap      omega  full diag
   1  -5198.2673501 -0.519827E+04  0.444E-03    3.76       0.0  T
   2  -5198.2673587 -0.855807E-05  0.267E-03    3.76       1.0  T
   3  -5198.2673576  0.105754E-05  0.116E-03    3.76       1.4  T
   4  -5198.2673596 -0.200642E-05  0.373E-04    3.76       4.3  T
   5  -5198.2673600 -0.378279E-06  0.134E-04    3.76      12.0  T
   6  -5198.2673600 -0.223836E-07  0.962E-05    3.76      16.7  T
     SCC iter.                  ...       21 min,  3.511 sec
     gradient                   ...        5 min, 15.481 sec
 * total energy  : -5104.0240886 Eh     change    :  -0.4784933E-02 Eh
   gradient norm :     0.0971025 Eh/a0  converged?    E=F G=F D=F
   time step     :     0.2435896 fs     power     :   0.2336655E-06
   step length   :     0.0484717 a0     speed     :   0.4813313E-02

........................................................................
.............................. CYCLE   19 ..............................
........................................................................

 iter      E             dE          RMSdq      gap      omega  full diag
   1  -5198.1768547 -0.519818E+04  0.530E-03    3.75       0.0  T
   2  -5198.1768659 -0.112028E-04  0.319E-03    3.75       1.0  T
   3  -5198.1768640  0.186712E-05  0.134E-03    3.75       1.2  T
   4  -5198.1768671 -0.308994E-05  0.440E-04    3.75       3.7  T
   5  -5198.1768677 -0.550471E-06  0.151E-04    3.75      10.7  T
   6  -5198.1768677 -0.250448E-07  0.105E-04    3.76      15.4  T
     SCC iter.                  ...       21 min,  3.575 sec
     gradient                   ...        5 min, 14.969 sec
 * total energy  : -5104.0288492 Eh     change    :  -0.4760666E-02 Eh
   gradient norm :     0.0859645 Eh/a0  converged?    E=F G=F D=F
   time step     :     0.2679486 fs     power     :   0.2039754E-06
   step length   :     0.0590056 a0     speed     :   0.5326687E-02

........................................................................
.............................. CYCLE   20 ..............................
........................................................................

 iter      E             dE          RMSdq      gap      omega  full diag
   1  -5198.0703867 -0.519807E+04  0.613E-03    3.75       0.0  T
   2  -5198.0703997 -0.129568E-04  0.368E-03    3.75       1.0  T
   3  -5198.0703964  0.324489E-05  0.149E-03    3.75       1.1  T
   4  -5198.0704012 -0.473779E-05  0.489E-04    3.75       3.3  T
   5  -5198.0704019 -0.713909E-06  0.163E-04    3.75       9.9  T
   6  -5198.0704019 -0.237897E-07  0.108E-04    3.75      14.9  T
     SCC iter.                  ...       21 min,  1.291 sec
     gradient                   ...        5 min, 20.534 sec
 * total energy  : -5104.0333491 Eh     change    :  -0.4499871E-02 Eh
   gradient norm :     0.0809042 Eh/a0  converged?    E=F G=F D=F
   time step     :     0.2947435 fs     power     :   0.1692476E-06
   step length   :     0.0698251 a0     speed     :   0.5730365E-02
 * RMSD in coord.:     0.0410777 a0     energy gain  -0.7022565E+00 Eh

........................................................................
.............................. CYCLE   21 ..............................
........................................................................

 iter      E             dE          RMSdq      gap      omega  full diag
   1  -5197.9801793 -0.519798E+04  0.524E-03    3.75       0.0  T
   2  -5197.9801869 -0.760937E-05  0.315E-03    3.75       1.0  T
   3  -5197.9801838  0.306731E-05  0.122E-03    3.75       1.3  T
   4  -5197.9801880 -0.412381E-05  0.383E-04    3.75       4.2  T
   5  -5197.9801884 -0.448516E-06  0.131E-04    3.75      12.3  T
   6  -5197.9801884 -0.131122E-07  0.831E-05    3.75      19.4  T
     SCC iter.                  ...       21 min,  4.693 sec
     gradient                   ...        5 min, 17.635 sec
 * total energy  : -5104.0366392 Eh     change    :  -0.3290130E-02 Eh
   gradient norm :     0.0807102 Eh/a0  converged?    E=F G=F D=F
   time step     :     0.2500000 fs     power     :   0.1509762E-06
   step length   :     0.0609212 a0     speed     :   0.5894450E-02

........................................................................
.............................. CYCLE   22 ..............................
........................................................................

 iter      E             dE          RMSdq      gap      omega  full diag
   1  -5197.8941888 -0.519789E+04  0.523E-03    3.75       0.0  T
   2  -5197.8941943 -0.559366E-05  0.314E-03    3.75       1.0  T
   3  -5197.8941905  0.382031E-05  0.118E-03    3.75       1.4  T
   4  -5197.8941954 -0.488110E-05  0.321E-04    3.75       5.0  T
   5  -5197.8941957 -0.313069E-06  0.112E-04    3.75      14.3  T
   6  -5197.8941957 -0.504224E-08  0.652E-05    3.75      24.7  T
     SCC iter.                  ...       21 min,  2.908 sec
     gradient                   ...        5 min, 17.145 sec
 * total energy  : -5104.0397191 Eh     change    :  -0.3079898E-02 Eh
   gradient norm :     0.0810761 Eh/a0  converged?    E=F G=F D=F
   time step     :     0.2500000 fs     power     :   0.1446147E-06
   step length   :     0.0617237 a0     speed     :   0.5972101E-02

........................................................................
.............................. CYCLE   23 ..............................
........................................................................

 iter      E             dE          RMSdq      gap      omega  full diag
   1  -5197.8157766 -0.519782E+04  0.524E-03    3.75       0.0  T
   2  -5197.8157804 -0.384661E-05  0.314E-03    3.75       1.0  T
   3  -5197.8157761  0.438723E-05  0.115E-03    3.75       1.4  T
   4  -5197.8157815 -0.545849E-05  0.254E-04    3.75       6.3  T
   5  -5197.8157817 -0.183551E-06  0.979E-05    3.76      16.4  T
   6  -5197.8157817 -0.154614E-08  0.532E-05    3.76      30.3  T
     SCC iter.                  ...       21 min,  1.768 sec
     gradient                   ...        5 min, 15.571 sec
 * total energy  : -5104.0427691 Eh     change    :  -0.3050027E-02 Eh
   gradient norm :     0.0802864 Eh/a0  converged?    E=F G=F D=F
   time step     :     0.2500000 fs     power     :   0.1464564E-06
   step length   :     0.0621773 a0     speed     :   0.6015986E-02

........................................................................
.............................. CYCLE   24 ..............................
........................................................................

 iter      E             dE          RMSdq      gap      omega  full diag
   1  -5197.7473684 -0.519775E+04  0.527E-03    3.76       0.0  T
   2  -5197.7473710 -0.261674E-05  0.316E-03    3.76       1.0  T
   3  -5197.7473664  0.455921E-05  0.111E-03    3.76       1.4  T
   4  -5197.7473720 -0.559595E-05  0.206E-04    3.76       7.8  T
   5  -5197.7473721 -0.107149E-06  0.938E-05    3.76      17.2  T
   6  -5197.7473721 -0.417822E-08  0.526E-05    3.76      30.6  T
     SCC iter.                  ...       21 min, 10.513 sec
     gradient                   ...        5 min, 15.776 sec
 * total energy  : -5104.0458775 Eh     change    :  -0.3108341E-02 Eh
   gradient norm :     0.0776082 Eh/a0  converged?    E=F G=F D=F
   time step     :     0.2500000 fs     power     :   0.1516270E-06
   step length   :     0.0626614 a0     speed     :   0.6062829E-02

........................................................................
.............................. CYCLE   25 ..............................
........................................................................

 iter      E             dE          RMSdq      gap      omega  full diag
   1  -5197.6905631 -0.519769E+04  0.532E-03    3.76       0.0  T
   2  -5197.6905650 -0.188520E-05  0.318E-03    3.76       1.0  T
   3  -5197.6905608  0.422164E-05  0.106E-03    3.76       1.5  T
   4  -5197.6905660 -0.516308E-05  0.185E-04    3.76       8.7  T
   5  -5197.6905660 -0.775581E-07  0.103E-04    3.76      15.6  T
   6  -5197.6905660 -0.134405E-07  0.647E-05    3.76      24.9  T
     SCC iter.                  ...       21 min,  5.438 sec
     gradient                   ...        5 min, 16.306 sec
 * total energy  : -5104.0490499 Eh     change    :  -0.3172372E-02 Eh
   gradient norm :     0.0737842 Eh/a0  converged?    E=F G=F D=F
   time step     :     0.2500000 fs     power     :   0.1557982E-06
   step length   :     0.0633550 a0     speed     :   0.6129937E-02

........................................................................
.............................. CYCLE   26 ..............................
........................................................................

 iter      E             dE          RMSdq      gap      omega  full diag
   1  -5197.6420922 -0.519764E+04  0.591E-03    3.76       0.0  T
   2  -5197.6420940 -0.183125E-05  0.352E-03    3.76       1.0  T
   3  -5197.6420899  0.411483E-05  0.105E-03    3.76       1.5  T
   4  -5197.6420950 -0.507892E-05  0.203E-04    3.76       7.9  T
   5  -5197.6420951 -0.869295E-07  0.132E-04    3.76      12.2  T
   6  -5197.6420951 -0.337404E-07  0.918E-05    3.76      17.5  T
     SCC iter.                  ...       21 min,  2.853 sec
     gradient                   ...        5 min, 17.268 sec
 * total energy  : -5104.0525685 Eh     change    :  -0.3518638E-02 Eh
   gradient norm :     0.0690302 Eh/a0  converged?    E=F G=F D=F
   time step     :     0.2750000 fs     power     :   0.1559774E-06
   step length   :     0.0710201 a0     speed     :   0.6246891E-02

........................................................................
.............................. CYCLE   27 ..............................
........................................................................

 iter      E             dE          RMSdq      gap      omega  full diag
   1  -5197.6049423 -0.519760E+04  0.652E-03    3.76       0.0  T
   2  -5197.6049442 -0.194281E-05  0.386E-03    3.76       1.0  T
   3  -5197.6049410  0.320514E-05  0.965E-04    3.76       1.7  T
   4  -5197.6049451 -0.411850E-05  0.235E-04    3.76       6.8  T
   5  -5197.6049452 -0.114324E-06  0.166E-04    3.76       9.7  T
   6  -5197.6049453 -0.600012E-07  0.124E-04    3.76      13.0  T
     SCC iter.                  ...       21 min,  1.535 sec
     gradient                   ...        5 min, 16.625 sec
 * total energy  : -5104.0563655 Eh     change    :  -0.3796983E-02 Eh
   gradient norm :     0.0642310 Eh/a0  converged?    E=F G=F D=F
   time step     :     0.3025000 fs     power     :   0.1512776E-06
   step length   :     0.0800537 a0     speed     :   0.6401344E-02

........................................................................
.............................. CYCLE   28 ..............................
........................................................................

 iter      E             dE          RMSdq      gap      omega  full diag
   1  -5197.5819141 -0.519758E+04  0.708E-03    3.76       0.0  T
   2  -5197.5819162 -0.210422E-05  0.418E-03    3.76       1.0  T
   3  -5197.5819144  0.181335E-05  0.821E-04    3.75       2.0  T
   4  -5197.5819170 -0.266629E-05  0.271E-04    3.75       5.9  T
   5  -5197.5819172 -0.146052E-06  0.197E-04    3.75       8.2  T
   6  -5197.5819173 -0.956197E-07  0.148E-04    3.75      10.9  T
     SCC iter.                  ...       21 min,  6.078 sec
     gradient                   ...        5 min, 16.551 sec
 * total energy  : -5104.0603553 Eh     change    :  -0.3989831E-02 Eh
   gradient norm :     0.0600385 Eh/a0  converged?    E=F G=F D=F
   time step     :     0.3327500 fs     power     :   0.1426079E-06
   step length   :     0.0904040 a0     speed     :   0.6571802E-02

........................................................................
.............................. CYCLE   29 ..............................
........................................................................

 iter      E             dE          RMSdq      gap      omega  full diag
   1  -5197.5751649 -0.519758E+04  0.752E-03    3.75       0.0  T
   2  -5197.5751671 -0.226347E-05  0.443E-03    3.75       1.0  T
   3  -5197.5751658  0.131538E-05  0.806E-04    3.75       2.0  T
   4  -5197.5751681 -0.226851E-05  0.291E-04    3.75       5.5  T
   5  -5197.5751682 -0.144655E-06  0.220E-04    3.75       7.3  T
   6  -5197.5751684 -0.139969E-06  0.158E-04    3.75      10.2  T
     SCC iter.                  ...       21 min,  6.182 sec
     gradient                   ...        5 min, 18.475 sec
 * total energy  : -5104.0644651 Eh     change    :  -0.4109743E-02 Eh
   gradient norm :     0.0568414 Eh/a0  converged?    E=F G=F D=F
   time step     :     0.3660250 fs     power     :   0.1317623E-06
   step length   :     0.1019450 a0     speed     :   0.6737055E-02

........................................................................
.............................. CYCLE   30 ..............................
........................................................................

 iter      E             dE          RMSdq      gap      omega  full diag
   1  -5197.5858117 -0.519759E+04  0.776E-03    3.74       0.0  T
   2  -5197.5858142 -0.246722E-05  0.458E-03    3.74       1.0  T
   3  -5197.5858115  0.274653E-05  0.103E-03    3.74       1.6  T
   4  -5197.5858155 -0.400075E-05  0.292E-04    3.74       5.5  T
   5  -5197.5858156 -0.132334E-06  0.227E-04    3.74       7.1  T
   6  -5197.5858157 -0.152034E-06  0.161E-04    3.74      10.0  T
     SCC iter.                  ...       21 min,  5.522 sec
     gradient                   ...        5 min, 18.107 sec
 * total energy  : -5104.0686652 Eh     change    :  -0.4200197E-02 Eh
   gradient norm :     0.0554332 Eh/a0  converged?    E=F G=F D=F
   time step     :     0.4026275 fs     power     :   0.1212501E-06
   step length   :     0.1145446 a0     speed     :   0.6881552E-02

........................................................................
.............................. CYCLE   31 ..............................
........................................................................

 iter      E             dE          RMSdq      gap      omega  full diag
   1  -5197.6138345 -0.519761E+04  0.778E-03    3.73       0.0  T
   2  -5197.6138372 -0.266364E-05  0.462E-03    3.73       1.0  T
   3  -5197.6138328  0.445107E-05  0.121E-03    3.73       1.3  T
   4  -5197.6138387 -0.593188E-05  0.278E-04    3.73       5.8  T
   5  -5197.6138388 -0.119765E-06  0.212E-04    3.73       7.6  T
   6  -5197.6138389 -0.120113E-06  0.150E-04    3.73      10.7  T
     SCC iter.                  ...       21 min,  5.889 sec
     gradient                   ...        5 min, 17.468 sec
 * total energy  : -5104.0730381 Eh     change    :  -0.4372861E-02 Eh
   gradient norm :     0.0563299 Eh/a0  converged?    E=F G=F D=F
   time step     :     0.4428903 fs     power     :   0.1153219E-06
   step length   :     0.1281474 a0     speed     :   0.6998886E-02

........................................................................
.............................. CYCLE   32 ..............................
........................................................................

 iter      E             dE          RMSdq      gap      omega  full diag
   1  -5197.6587478 -0.519766E+04  0.773E-03    3.73       0.0  T
   2  -5197.6587504 -0.261606E-05  0.461E-03    3.73       1.0  T
   3  -5197.6587466  0.376785E-05  0.108E-03    3.73       1.5  T
   4  -5197.6587516 -0.492733E-05  0.249E-04    3.73       6.5  T
   5  -5197.6587517 -0.102957E-06  0.174E-04    3.73       9.3  T
   6  -5197.6587517 -0.626633E-07  0.125E-04    3.73      12.9  T
     SCC iter.                  ...       21 min,  6.289 sec
     gradient                   ...        5 min, 15.228 sec
 * total energy  : -5104.0778430 Eh     change    :  -0.4804894E-02 Eh
   gradient norm :     0.0569516 Eh/a0  converged?    E=F G=F D=F
   time step     :     0.4871793 fs     power     :   0.1175215E-06
   step length   :     0.1431261 a0     speed     :   0.7106326E-02

........................................................................
.............................. CYCLE   33 ..............................
........................................................................

 iter      E             dE          RMSdq      gap      omega  full diag
   1  -5197.7212936 -0.519772E+04  0.796E-03    3.73       0.0  T
   2  -5197.7212965 -0.285770E-05  0.475E-03    3.73       1.0  T
   3  -5197.7212946  0.188638E-05  0.806E-04    3.72       2.0  T
   4  -5197.7212971 -0.255141E-05  0.240E-04    3.72       6.7  T
   5  -5197.7212973 -0.123735E-06  0.129E-04    3.72      12.4  T
   6  -5197.7212973 -0.237178E-07  0.806E-05    3.72      20.0  T
     SCC iter.                  ...       21 min,  5.311 sec
     gradient                   ...        5 min, 15.744 sec
 * total energy  : -5104.0833259 Eh     change    :  -0.5482933E-02 Eh
   gradient norm :     0.0526542 Eh/a0  converged?    E=F G=F D=F
   time step     :     0.5358972 fs     power     :   0.1225186E-06
   step length   :     0.1606791 a0     speed     :   0.7252587E-02

........................................................................
.............................. CYCLE   34 ..............................
........................................................................

 iter      E             dE          RMSdq      gap      omega  full diag
   1  -5197.8053623 -0.519781E+04  0.872E-03    3.73       0.0  T
   2  -5197.8053667 -0.444056E-05  0.522E-03    3.73       1.0  T
   3  -5197.8053594  0.735586E-05  0.139E-03    3.73       1.2  T
   4  -5197.8053682 -0.881241E-05  0.267E-04    3.73       6.0  T
   5  -5197.8053684 -0.197163E-06  0.123E-04    3.73      13.1  T
   6  -5197.8053684 -0.994532E-08  0.618E-05    3.73      26.0  T
     SCC iter.                  ...       21 min,  5.273 sec
     gradient                   ...        5 min, 16.658 sec
 * total energy  : -5104.0892465 Eh     change    :  -0.5920537E-02 Eh
   gradient norm :     0.0439517 Eh/a0  converged?    E=F G=F D=F
   time step     :     0.5894869 fs     power     :   0.1155923E-06
   step length   :     0.1820441 a0     speed     :   0.7469947E-02

........................................................................
.............................. CYCLE   35 ..............................
........................................................................

 iter      E             dE          RMSdq      gap      omega  full diag
   1  -5197.9185066 -0.519792E+04  0.958E-03    3.73       0.0  T
   2  -5197.9185130 -0.639513E-05  0.580E-03    3.73       1.0  T
   3  -5197.9184941  0.188412E-04  0.215E-03    3.73       1.0  T
   4  -5197.9185169 -0.227830E-04  0.299E-04    3.73       5.4  T
   5  -5197.9185171 -0.214007E-06  0.143E-04    3.73      11.3  T
   6  -5197.9185171 -0.106666E-07  0.682E-05    3.73      23.6  T
     SCC iter.                  ...       21 min,  4.749 sec
     gradient                   ...        5 min, 16.246 sec
 * total energy  : -5104.0948917 Eh     change    :  -0.5645197E-02 Eh
   gradient norm :     0.0413947 Eh/a0  converged?    E=F G=F D=F
   time step     :     0.6484356 fs     power     :   0.9394164E-07
   step length   :     0.2066296 a0     speed     :   0.7707984E-02

........................................................................
.............................. CYCLE   36 ..............................
........................................................................

 iter      E             dE          RMSdq      gap      omega  full diag
   1  -5198.0640693 -0.519806E+04  0.991E-03    3.74       0.0  T
   2  -5198.0640760 -0.666349E-05  0.603E-03    3.74       1.0  T
   3  -5198.0640518  0.241987E-04  0.239E-03    3.74       1.0  T
   4  -5198.0640810 -0.291829E-04  0.288E-04    3.74       5.6  T
   5  -5198.0640811 -0.162343E-06  0.143E-04    3.74      11.2  T
   6  -5198.0640811 -0.930868E-08  0.668E-05    3.74      24.1  T
     SCC iter.                  ...       21 min,  4.684 sec
     gradient                   ...        5 min, 17.078 sec
 * total energy  : -5104.1001460 Eh     change    :  -0.5254381E-02 Eh
   gradient norm :     0.0430895 Eh/a0  converged?    E=F G=F D=F
   time step     :     0.7132792 fs     power     :   0.7901287E-07
   step length   :     0.2308845 a0     speed     :   0.7829795E-02

........................................................................
.............................. CYCLE   37 ..............................
........................................................................

 iter      E             dE          RMSdq      gap      omega  full diag
   1  -5198.2291783 -0.519823E+04  0.103E-02    3.73       0.0  T
   2  -5198.2291871 -0.881911E-05  0.613E-03    3.73       1.0  T
   3  -5198.2291712  0.159836E-04  0.221E-03    3.73       1.0  T
   4  -5198.2291906 -0.194757E-04  0.355E-04    3.73       4.5  T
   5  -5198.2291910 -0.331602E-06  0.148E-04    3.73      10.9  T
   6  -5198.2291910 -0.761884E-08  0.795E-05    3.73      20.2  T
     SCC iter.                  ...       21 min,  5.032 sec
     gradient                   ...        5 min, 16.969 sec
 * total energy  : -5104.1053709 Eh     change    :  -0.5224852E-02 Eh
   gradient norm :     0.0401529 Eh/a0  converged?    E=F G=F D=F
   time step     :     0.7846071 fs     power     :   0.7006049E-07
   step length   :     0.2552165 a0     speed     :   0.7868131E-02

........................................................................
.............................. CYCLE   38 ..............................
........................................................................

 iter      E             dE          RMSdq      gap      omega  full diag
   1  -5198.3777226 -0.519838E+04  0.105E-02    3.73       0.0  T
   2  -5198.3777321 -0.950160E-05  0.618E-03    3.73       1.0  T
   3  -5198.3777247  0.747552E-05  0.179E-03    3.73       1.0  T
   4  -5198.3777341 -0.943120E-05  0.357E-04    3.73       4.5  T
   5  -5198.3777344 -0.293062E-06  0.154E-04    3.73      10.4  T
   6  -5198.3777344 -0.106693E-07  0.870E-05    3.73      18.5  T
     SCC iter.                  ...       21 min,  3.257 sec
     gradient                   ...        5 min, 15.179 sec
 * total energy  : -5104.1104800 Eh     change    :  -0.5109105E-02 Eh
   gradient norm :     0.0425614 Eh/a0  converged?    E=F G=F D=F
   time step     :     0.8630678 fs     power     :   0.6051411E-07
   step length   :     0.2814438 a0     speed     :   0.7887910E-02

........................................................................
.............................. CYCLE   39 ..............................
........................................................................

 iter      E             dE          RMSdq      gap      omega  full diag
   1  -5198.4579255 -0.519846E+04  0.105E-02    3.73       0.0  T
   2  -5198.4579303 -0.474617E-05  0.620E-03    3.73       1.0  T
   3  -5198.4579243  0.594125E-05  0.139E-03    3.73       1.2  T
   4  -5198.4579317 -0.740515E-05  0.268E-04    3.73       6.0  T
   5  -5198.4579319 -0.129452E-06  0.138E-04    3.73      11.7  T
   6  -5198.4579319 -0.102054E-07  0.632E-05    3.73      25.4  T
     SCC iter.                  ...       20 min, 59.944 sec
     gradient                   ...        5 min, 16.205 sec
 * total energy  : -5104.1160874 Eh     change    :  -0.5607400E-02 Eh
   gradient norm :     0.0423137 Eh/a0  converged?    E=F G=F D=F
   time step     :     0.9493746 fs     power     :   0.6394234E-07
   step length   :     0.3089740 a0     speed     :   0.7872259E-02

........................................................................
.............................. CYCLE   40 ..............................
........................................................................

 iter      E             dE          RMSdq      gap      omega  full diag
   1  -5198.4343189 -0.519843E+04  0.108E-02    3.74       0.0  T
   2  -5198.4343276 -0.872375E-05  0.654E-03    3.74       1.0  T
   3  -5198.4343133  0.143275E-04  0.200E-03    3.74       1.0  T
   4  -5198.4343310 -0.176930E-04  0.363E-04    3.74       4.4  T
   5  -5198.4343312 -0.279360E-06  0.222E-04    3.74       7.3  T
   6  -5198.4343313 -0.547443E-07  0.145E-04    3.74      11.1  T
     SCC iter.                  ...       21 min,  3.655 sec
     gradient                   ...        5 min, 17.922 sec
 * total energy  : -5104.1224827 Eh     change    :  -0.6395304E-02 Eh
   gradient norm :     0.0394814 Eh/a0  converged?    E=F G=F D=F
   time step     :     1.0443120 fs     power     :   0.6494993E-07
   step length   :     0.3426702 a0     speed     :   0.7937087E-02

........................................................................
.............................. CYCLE   41 ..............................
........................................................................

 iter      E             dE          RMSdq      gap      omega  full diag
   1  -5198.3265337 -0.519833E+04  0.121E-02    3.73       0.0  T
   2  -5198.3265511 -0.174115E-04  0.727E-03    3.73       1.0  T
   3  -5198.3265365  0.145511E-04  0.221E-03    3.73       1.0  T
   4  -5198.3265548 -0.182808E-04  0.544E-04    3.73       3.0  T
   5  -5198.3265557 -0.866668E-06  0.267E-04    3.73       6.0  T
   6  -5198.3265557 -0.685095E-07  0.176E-04    3.73       9.1  T
     SCC iter.                  ...       21 min,  6.276 sec
     gradient                   ...        5 min, 15.637 sec
 * total energy  : -5104.1291519 Eh     change    :  -0.6669218E-02 Eh
   gradient norm :     0.0360381 Eh/a0  converged?    E=F G=F D=F
   time step     :     1.1487432 fs     power     :   0.5754456E-07
   step length   :     0.3826926 a0     speed     :   0.8058277E-02

........................................................................
.............................. CYCLE   42 ..............................
........................................................................

 iter      E             dE          RMSdq      gap      omega  full diag
   1  -5198.2142171 -0.519821E+04  0.133E-02    3.72       0.0  T
   2  -5198.2142270 -0.995839E-05  0.796E-03    3.72       1.0  T
   3  -5198.2142085  0.185720E-04  0.257E-03    3.72       1.0  T
   4  -5198.2142313 -0.227981E-04  0.387E-04    3.72       4.2  T
   5  -5198.2142315 -0.235128E-06  0.200E-04    3.72       8.0  T
   6  -5198.2142315 -0.175287E-07  0.923E-05    3.72      17.4  T
     SCC iter.                  ...       21 min,  6.704 sec
     gradient                   ...        5 min, 16.799 sec
 * total energy  : -5104.1355731 Eh     change    :  -0.6421217E-02 Eh
   gradient norm :     0.0374843 Eh/a0  converged?    E=F G=F D=F
   time step     :     1.2500000 fs     power     :   0.4986692E-07
   step length   :     0.4209679 a0     speed     :   0.8146180E-02
 * RMSD in coord.:     0.0548334 a0     energy gain  -0.1022241E+00 Eh

........................................................................
.............................. CYCLE   43 ..............................
........................................................................

 iter      E             dE          RMSdq      gap      omega  full diag
   1  -5198.2004637 -0.519820E+04  0.228E-03    3.72       0.0  T
   2  -5198.2004640 -0.321449E-06  0.139E-03    3.72       1.2  T
   3  -5198.2004629  0.117987E-05  0.550E-04    3.72       2.9  T
   4  -5198.2004643 -0.142291E-05  0.675E-05    3.72      23.8  T
   5  -5198.2004643 -0.942055E-08  0.364E-05    3.72      44.2  T
   6  -5198.2004643 -0.121781E-08  0.186E-05    3.72      86.5  T
     SCC iter.                  ...       21 min,  8.025 sec
     gradient                   ...        5 min, 17.612 sec
 * total energy  : -5104.1367723 Eh     change    :  -0.1199177E-02 Eh
   gradient norm :     0.0367807 Eh/a0  converged?    E=F G=F D=F
   time step     :     0.2500000 fs     power     :   0.6127356E-07
   step length   :     0.0795824 a0     speed     :   0.7700028E-02

........................................................................
.............................. CYCLE   44 ..............................
........................................................................

 iter      E             dE          RMSdq      gap      omega  full diag
   1  -5198.1954864 -0.519820E+04  0.226E-03    3.73       0.0  T
   2  -5198.1954870 -0.567569E-06  0.141E-03    3.73       1.1  T
   3  -5198.1954855  0.144002E-05  0.634E-04    3.73       2.5  T
   4  -5198.1954874 -0.187863E-05  0.802E-05    3.73      20.1  T
   5  -5198.1954874 -0.183582E-07  0.351E-05    3.73      45.8  T
   6  -5198.1954874 -0.892214E-09  0.183E-05    3.73      87.8  T
     SCC iter.                  ...       21 min,  4.329 sec
     gradient                   ...        5 min, 15.268 sec
 * total energy  : -5104.1381247 Eh     change    :  -0.1352377E-02 Eh
   gradient norm :     0.0331955 Eh/a0  converged?    E=F G=F D=F
   time step     :     0.2500000 fs     power     :   0.6864920E-07
   step length   :     0.0761819 a0     speed     :   0.7371004E-02

........................................................................
.............................. CYCLE   45 ..............................
........................................................................

 iter      E             dE          RMSdq      gap      omega  full diag
   1  -5198.1992786 -0.519820E+04  0.246E-03    3.73       0.0  T
   2  -5198.1992795 -0.874385E-06  0.155E-03    3.73       1.0  T
   3  -5198.1992778  0.164228E-05  0.719E-04    3.73       2.2  T
   4  -5198.1992801 -0.228942E-05  0.983E-05    3.73      16.4  T
   5  -5198.1992801 -0.280488E-07  0.434E-05    3.73      37.1  T
   6  -5198.1992801 -0.156979E-08  0.247E-05    3.73      65.1  T
     SCC iter.                  ...       21 min,  5.200 sec
     gradient                   ...        5 min, 15.698 sec
 * total energy  : -5104.1395196 Eh     change    :  -0.1394887E-02 Eh
   gradient norm :     0.0288887 Eh/a0  converged?    E=F G=F D=F
   time step     :     0.2500000 fs     power     :   0.6943637E-07
   step length   :     0.0739130 a0     speed     :   0.7151481E-02

........................................................................
.............................. CYCLE   46 ..............................
........................................................................

 iter      E             dE          RMSdq      gap      omega  full diag
   1  -5198.2118472 -0.519821E+04  0.266E-03    3.73       0.0  T
   2  -5198.2118482 -0.951663E-06  0.167E-03    3.73       1.0  T
   3  -5198.2118462  0.195972E-05  0.762E-04    3.73       2.1  T
   4  -5198.2118489 -0.264980E-05  0.104E-04    3.73      15.5  T
   5  -5198.2118489 -0.286464E-07  0.497E-05    3.73      32.4  T
   6  -5198.2118489 -0.202908E-08  0.287E-05    3.73      56.0  T
     SCC iter.                  ...       21 min,  5.153 sec
     gradient                   ...        5 min, 14.368 sec
 * total energy  : -5104.1408573 Eh     change    :  -0.1337743E-02 Eh
   gradient norm :     0.0263732 Eh/a0  converged?    E=F G=F D=F
   time step     :     0.2500000 fs     power     :   0.6559419E-07
   step length   :     0.0724439 a0     speed     :   0.7009336E-02

........................................................................
.............................. CYCLE   47 ..............................
........................................................................

 iter      E             dE          RMSdq      gap      omega  full diag
   1  -5198.2325539 -0.519823E+04  0.272E-03    3.73       0.0  T
   2  -5198.2325546 -0.726721E-06  0.167E-03    3.73       1.0  T
   3  -5198.2325526  0.196619E-05  0.710E-04    3.73       2.3  T
   4  -5198.2325551 -0.247193E-05  0.957E-05    3.73      16.8  T
   5  -5198.2325551 -0.210412E-07  0.500E-05    3.73      32.2  T
   6  -5198.2325551 -0.203545E-08  0.285E-05    3.73      56.4  T
     SCC iter.                  ...       21 min,  6.382 sec
     gradient                   ...        5 min, 17.177 sec
 * total energy  : -5104.1421093 Eh     change    :  -0.1251935E-02 Eh
   gradient norm :     0.0262579 Eh/a0  converged?    E=F G=F D=F
   time step     :     0.2500000 fs     power     :   0.6151970E-07
   step length   :     0.0712012 a0     speed     :   0.6889102E-02

........................................................................
.............................. CYCLE   48 ..............................
........................................................................

 iter      E             dE          RMSdq      gap      omega  full diag
   1  -5198.2625920 -0.519826E+04  0.292E-03    3.73       0.0  T
   2  -5198.2625925 -0.509190E-06  0.175E-03    3.73       1.0  T
   3  -5198.2625910  0.148448E-05  0.605E-04    3.73       2.7  T
   4  -5198.2625928 -0.178411E-05  0.900E-05    3.73      17.9  T
   5  -5198.2625928 -0.165037E-07  0.491E-05    3.73      32.7  T
   6  -5198.2625928 -0.168893E-08  0.260E-05    3.73      61.9  T
     SCC iter.                  ...       21 min,  2.325 sec
     gradient                   ...        5 min, 16.039 sec
 * total energy  : -5104.1434257 Eh     change    :  -0.1316386E-02 Eh
   gradient norm :     0.0269659 Eh/a0  converged?    E=F G=F D=F
   time step     :     0.2750000 fs     power     :   0.5937533E-07
   step length   :     0.0768761 a0     speed     :   0.6761981E-02

........................................................................
.............................. CYCLE   49 ..............................
........................................................................

 iter      E             dE          RMSdq      gap      omega  full diag
   1  -5198.3009517 -0.519830E+04  0.306E-03    3.73       0.0  T
   2  -5198.3009520 -0.363871E-06  0.181E-03    3.73       1.0  T
   3  -5198.3009514  0.611620E-06  0.449E-04    3.73       3.6  T
   4  -5198.3009522 -0.763306E-06  0.805E-05    3.73      20.0  T
     SCC iter.                  ...       14 min,  2.129 sec
     gradient                   ...        5 min, 17.077 sec
 * total energy  : -5104.1448538 Eh     change    :  -0.1428112E-02 Eh
   gradient norm :     0.0269046 Eh/a0  converged?    E=F G=F D=F
   time step     :     0.3025000 fs     power     :   0.5914929E-07
   step length   :     0.0829813 a0     speed     :   0.6635442E-02

........................................................................
.............................. CYCLE   50 ..............................
........................................................................

 iter      E             dE          RMSdq      gap      omega  full diag
   1  -5198.3458068 -0.519835E+04  0.320E-03    3.73       0.0  T
   2  -5198.3458072 -0.390453E-06  0.190E-03    3.73       1.0  T
   3  -5198.3458065  0.723266E-06  0.482E-04    3.73       3.3  T
   4  -5198.3458074 -0.902783E-06  0.757E-05    3.73      21.3  T
     SCC iter.                  ...       14 min,  3.772 sec
     gradient                   ...        5 min, 16.990 sec
 * total energy  : -5104.1464204 Eh     change    :  -0.1566592E-02 Eh
   gradient norm :     0.0255241 Eh/a0  converged?    E=F G=F D=F
   time step     :     0.3327500 fs     power     :   0.5897659E-07
   step length   :     0.0899114 a0     speed     :   0.6535998E-02

........................................................................
.............................. CYCLE   51 ..............................
........................................................................

 iter      E             dE          RMSdq      gap      omega  full diag
   1  -5198.3941760 -0.519839E+04  0.339E-03    3.73       0.0  T
   2  -5198.3941765 -0.542936E-06  0.203E-03    3.73       1.0  T
   3  -5198.3941750  0.149828E-05  0.606E-04    3.73       2.7  T
   4  -5198.3941768 -0.180172E-05  0.879E-05    3.73      18.3  T
   5  -5198.3941768 -0.123910E-07  0.488E-05    3.73      32.9  T
   6  -5198.3941768 -0.141699E-08  0.231E-05    3.73      69.7  T
     SCC iter.                  ...       21 min,  5.867 sec
     gradient                   ...        5 min, 17.470 sec
 * total energy  : -5104.1481049 Eh     change    :  -0.1684565E-02 Eh
   gradient norm :     0.0232568 Eh/a0  converged?    E=F G=F D=F
   time step     :     0.3660250 fs     power     :   0.5701201E-07
   step length   :     0.0980464 a0     speed     :   0.6479421E-02

........................................................................
.............................. CYCLE   52 ..............................
........................................................................

 iter      E             dE          RMSdq      gap      omega  full diag
   1  -5198.4413011 -0.519844E+04  0.361E-03    3.73       0.0  T
   2  -5198.4413018 -0.661538E-06  0.216E-03    3.73       1.0  T
   3  -5198.4413004  0.134390E-05  0.587E-04    3.73       2.7  T
   4  -5198.4413021 -0.163540E-05  0.104E-04    3.73      15.5  T
   5  -5198.4413021 -0.210803E-07  0.547E-05    3.73      29.4  T
   6  -5198.4413021 -0.140062E-08  0.248E-05    3.73      64.8  T
     SCC iter.                  ...       21 min,  2.525 sec
     gradient                   ...        5 min, 16.487 sec
 * total energy  : -5104.1498483 Eh     change    :  -0.1743420E-02 Eh
   gradient norm :     0.0213880 Eh/a0  converged?    E=F G=F D=F
   time step     :     0.4026275 fs     power     :   0.5272675E-07
   step length   :     0.1075456 a0     speed     :   0.6461067E-02

........................................................................
.............................. CYCLE   53 ..............................
........................................................................

 iter      E             dE          RMSdq      gap      omega  full diag
   1  -5198.4805347 -0.519848E+04  0.381E-03    3.73       0.0  T
   2  -5198.4805354 -0.763038E-06  0.226E-03    3.73       1.0  T
   3  -5198.4805345  0.969312E-06  0.575E-04    3.73       2.8  T
   4  -5198.4805357 -0.124176E-05  0.109E-04    3.73      14.8  T
   5  -5198.4805357 -0.196806E-07  0.623E-05    3.73      25.8  T
     SCC iter.                  ...       17 min, 33.665 sec
     gradient                   ...        5 min, 16.193 sec
 * total energy  : -5104.1516086 Eh     change    :  -0.1760261E-02 Eh
   gradient norm :     0.0217455 Eh/a0  converged?    E=F G=F D=F
   time step     :     0.4428903 fs     power     :   0.4801601E-07
   step length   :     0.1181155 a0     speed     :   0.6450983E-02

........................................................................
.............................. CYCLE   54 ..............................
........................................................................

 iter      E             dE          RMSdq      gap      omega  full diag
   1  -5198.5057232 -0.519851E+04  0.394E-03    3.73       0.0  T
   2  -5198.5057241 -0.903688E-06  0.235E-03    3.73       1.0  T
   3  -5198.5057215  0.260299E-05  0.824E-04    3.73       2.0  T
   4  -5198.5057247 -0.315883E-05  0.118E-04    3.73      13.6  T
   5  -5198.5057247 -0.281534E-07  0.710E-05    3.73      22.7  T
   6  -5198.5057247 -0.465116E-08  0.378E-05    3.73      42.5  T
     SCC iter.                  ...       21 min,  6.377 sec
     gradient                   ...        5 min, 16.603 sec
 * total energy  : -5104.1534436 Eh     change    :  -0.1834958E-02 Eh
   gradient norm :     0.0232118 Eh/a0  converged?    E=F G=F D=F
   time step     :     0.4871793 fs     power     :   0.4633513E-07
   step length   :     0.1290379 a0     speed     :   0.6406834E-02

........................................................................
.............................. CYCLE   55 ..............................
........................................................................

 iter      E             dE          RMSdq      gap      omega  full diag
   1  -5198.5137995 -0.519851E+04  0.415E-03    3.73       0.0  T
   2  -5198.5138006 -0.108049E-05  0.249E-03    3.73       1.0  T
   3  -5198.5137962  0.443350E-05  0.104E-03    3.73       1.5  T
   4  -5198.5138015 -0.535947E-05  0.111E-04    3.73      14.5  T
   5  -5198.5138015 -0.174914E-07  0.681E-05    3.73      23.6  T
   6  -5198.5138015 -0.386171E-08  0.360E-05    3.73      44.7  T
     SCC iter.                  ...       21 min,  3.255 sec
     gradient                   ...        5 min, 16.626 sec
 * total energy  : -5104.1554688 Eh     change    :  -0.2025270E-02 Eh
   gradient norm :     0.0221601 Eh/a0  converged?    E=F G=F D=F
   time step     :     0.5358972 fs     power     :   0.4707370E-07
   step length   :     0.1406921 a0     speed     :   0.6350434E-02

........................................................................
.............................. CYCLE   56 ..............................
........................................................................

 iter      E             dE          RMSdq      gap      omega  full diag
   1  -5198.5042532 -0.519850E+04  0.452E-03    3.73       0.0  T
   2  -5198.5042544 -0.123004E-05  0.270E-03    3.73       1.0  T
   3  -5198.5042505  0.395844E-05  0.104E-03    3.73       1.5  T
   4  -5198.5042552 -0.476284E-05  0.123E-04    3.73      13.1  T
   5  -5198.5042553 -0.273412E-07  0.654E-05    3.73      24.6  T
   6  -5198.5042553 -0.189357E-08  0.287E-05    3.73      56.1  T
     SCC iter.                  ...       21 min,  2.202 sec
     gradient                   ...        5 min, 15.518 sec
 * total energy  : -5104.1576625 Eh     change    :  -0.2193638E-02 Eh
   gradient norm :     0.0191404 Eh/a0  converged?    E=F G=F D=F
   time step     :     0.5894869 fs     power     :   0.4529161E-07
   step length   :     0.1545335 a0     speed     :   0.6341083E-02

........................................................................
.............................. CYCLE   57 ..............................
........................................................................

 iter      E             dE          RMSdq      gap      omega  full diag
   1  -5198.4795416 -0.519848E+04  0.489E-03    3.73       0.0  T
   2  -5198.4795427 -0.107969E-05  0.291E-03    3.73       1.0  T
   3  -5198.4795406  0.209491E-05  0.838E-04    3.73       1.9  T
   4  -5198.4795432 -0.256808E-05  0.125E-04    3.73      12.9  T
   5  -5198.4795432 -0.195087E-07  0.712E-05    3.73      22.6  T
   6  -5198.4795432 -0.333785E-08  0.341E-05    3.73      47.2  T
     SCC iter.                  ...       21 min,  2.494 sec
     gradient                   ...        5 min, 15.250 sec
 * total energy  : -5104.1598817 Eh     change    :  -0.2219243E-02 Eh
   gradient norm :     0.0187468 Eh/a0  converged?    E=F G=F D=F
   time step     :     0.6484356 fs     power     :   0.4063761E-07
   step length   :     0.1709928 a0     speed     :   0.6378609E-02

[...]
  3608   6 C     3615   6 C                                       1.5342999
  3615   6 C     3616   6 C                                       1.5336196
  3617   6 C     3618   6 C                                       1.3895313
  3618   6 C     3619   6 C                                       1.3839788
  3619   6 C     3620   6 C                                       1.3835694
  3620   6 C     3621   6 C                                       1.3831434
  3617   6 C     3622   6 C                                       1.3900238
  3621   6 C     3622   6 C                                       1.3823687
  3616   6 C     3623   6 C                                       1.5370403
  3625   6 C     3626   6 C                                       1.3884672
  3626   6 C     3627   6 C                                       1.3842139
  3627   6 C     3628   6 C                                       1.3838786
  3628   6 C     3629   6 C                                       1.3850982
  3625   6 C     3630   6 C                                       1.3908325
  3629   6 C     3630   6 C                                       1.3819758
  3624   6 C     3631   6 C                                       1.5364237
  3631   6 C     3632   6 C                                       1.5340139
  3633   6 C     3634   6 C                                       1.3904437
  3634   6 C     3635   6 C                                       1.3823175
  3635   6 C     3636   6 C                                       1.3842700
  3636   6 C     3637   6 C                                       1.3842747
  3633   6 C     3638   6 C                                       1.3892688
  3637   6 C     3638   6 C                                       1.3846825
  3632   6 C     3639   6 C                                       1.5372173
  3639   6 C     3640   6 C                                       1.5315516
  3641   6 C     3642   6 C                                       1.3917987
  3642   6 C     3643   6 C                                       1.3817358
  3643   6 C     3644   6 C                                       1.3849244
  3644   6 C     3645   6 C                                       1.3832186
  3641   6 C     3646   6 C                                       1.3899921
  3645   6 C     3646   6 C                                       1.3847255
  3649   6 C     3650   6 C                                       1.3904196
  3650   6 C     3651   6 C                                       1.3835184
  3651   6 C     3652   6 C                                       1.3842849
  3652   6 C     3653   6 C                                       1.3840351
  3649   6 C     3654   6 C                                       1.3888420
  3653   6 C     3654   6 C                                       1.3843758
  3648   6 C     3655   6 C                                       1.5376908
  3655   6 C     3656   6 C                                       1.5351840
  3657   6 C     3658   6 C                                       1.3905918
  3658   6 C     3659   6 C                                       1.3823861
  3659   6 C     3660   6 C                                       1.3842712
  3660   6 C     3661   6 C                                       1.3837760
  3657   6 C     3662   6 C                                       1.3890659
  3661   6 C     3662   6 C                                       1.3843897
  3656   6 C     3663   6 C                                       1.5369682
  3663   6 C     3664   6 C                                       1.5385131
  3665   6 C     3666   6 C                                       1.3884393
  3666   6 C     3667   6 C                                       1.3824664
  3667   6 C     3668   6 C                                       1.3829389
  3668   6 C     3669   6 C                                       1.3844644
  3665   6 C     3670   6 C                                       1.3898198
  3669   6 C     3670   6 C                                       1.3824461
  3664   6 C     3671   6 C                                       1.5332240
  3671   6 C     3672   6 C                                       1.5329419
  3673   6 C     3674   6 C                                       1.3902242
  3674   6 C     3675   6 C                                       1.3824376
  3675   6 C     3676   6 C                                       1.3841547
  3676   6 C     3677   6 C                                       1.3836442
  3673   6 C     3678   6 C                                       1.3874571
  3677   6 C     3678   6 C                                       1.3841431
  3672   6 C     3679   6 C                                       1.5402556
  3679   6 C     3680   6 C                                       1.5395644
  3681   6 C     3682   6 C                                       1.3901344
  3682   6 C     3683   6 C                                       1.3831205
  3683   6 C     3684   6 C                                       1.3847055
  3684   6 C     3685   6 C                                       1.3843703
  3681   6 C     3686   6 C                                       1.3895848
  3685   6 C     3686   6 C                                       1.3830398
  3680   6 C     3687   6 C                                       1.5322959
  3687   6 C     3688   6 C                                       1.5357567
  3549   6 C     3689   1 H                                       1.0972376
  3551   6 C     3690   1 H                                       1.0908525
  3551   6 C     3691   1 H                                       1.0929872
  3552   6 C     3692   1 H                                       1.0949413
  3559   6 C     3693   1 H                                       1.0895090
  3559   6 C     3694   1 H                                       1.0910667
  3560   6 C     3695   1 H                                       1.0944877
  3567   6 C     3696   1 H                                       1.0924616
  3567   6 C     3697   1 H                                       1.0926782
  3568   6 C     3698   1 H                                       1.0944498
  3575   6 C     3699   1 H                                       1.0890631
  3576   6 C     3700   1 H                                       1.0948088
  3583   6 C     3701   1 H                                       1.0918547
  3583   6 C     3702   1 H                                       1.0928283
  3584   6 C     3703   1 H                                       1.0940276
  3591   6 C     3704   1 H                                       1.0904199
  3591   6 C     3705   1 H                                       1.0915886
  3592   6 C     3706   1 H                                       1.0952064
  3599   6 C     3707   1 H                                       1.0915737
  3599   6 C     3708   1 H                                       1.0921314
  3600   6 C     3709   1 H                                       1.0929557
  3608   6 C     3710   1 H                                       1.0961010
  3615   6 C     3711   1 H                                       1.0894208
  3615   6 C     3712   1 H                                       1.0909677
  3616   6 C     3713   1 H                                       1.0965069
  3623   6 C     3714   1 H                                       1.0913825
  3623   6 C     3715   1 H                                       1.0890863
  3624   6 C     3716   1 H                                       1.0952611
  3631   6 C     3717   1 H                                       1.0915529
  3631   6 C     3718   1 H                                       1.0898129
  3632   6 C     3719   1 H                                       1.0954482
  3639   6 C     3720   1 H                                       1.0903064
  3639   6 C     3721   1 H                                       1.0917689
  3640   6 C     3722   1 H                                       1.0975850
  3647   6 C     3723   1 H                                       1.0914355
  3647   6 C     3724   1 H                                       1.0924042
  3648   6 C     3725   1 H                                       1.0922659
  3655   6 C     3726   1 H                                       1.0904927
  3655   6 C     3727   1 H                                       1.0887662
  3656   6 C     3728   1 H                                       1.0948368
  3663   6 C     3729   1 H                                       1.0930936
  3663   6 C     3730   1 H                                       1.0920550
  3664   6 C     3731   1 H                                       1.0938220
  3671   6 C     3732   1 H                                       1.0913945
  3671   6 C     3733   1 H                                       1.0926746
  3672   6 C     3734   1 H                                       1.0948320
  3679   6 C     3735   1 H                                       1.0910209
  3679   6 C     3736   1 H                                       1.0936970
  3543   6 C     3737   1 H                                       1.0810977
  3548   6 C     3738   1 H                                       1.0829976
  3547   6 C     3739   1 H                                       1.0799748
  3546   6 C     3740   1 H                                       1.0809567
  3545   6 C     3741   1 H                                       1.0807143
  3554   6 C     3742   1 H                                       1.0823231
  3555   6 C     3743   1 H                                       1.0813502
  3556   6 C     3744   1 H                                       1.0805143
  3557   6 C     3745   1 H                                       1.0806508
  3558   6 C     3746   1 H                                       1.0803705
  3562   6 C     3747   1 H                                       1.0810071
  3563   6 C     3748   1 H                                       1.0815014
  3564   6 C     3749   1 H                                       1.0812662
  3565   6 C     3750   1 H                                       1.0808022
  3566   6 C     3751   1 H                                       1.0814006
  3570   6 C     3752   1 H                                       1.0802118
  3571   6 C     3753   1 H                                       1.0797186
  3572   6 C     3754   1 H                                       1.0796885
  3573   6 C     3755   1 H                                       1.0813214
  3574   6 C     3756   1 H                                       1.0812882
  3575   6 C     3757   1 H                                       1.0906391
  3578   6 C     3758   1 H                                       1.0807853
  3579   6 C     3759   1 H                                       1.0807356
  3580   6 C     3760   1 H                                       1.0803876
  3581   6 C     3761   1 H                                       1.0808870
  3582   6 C     3762   1 H                                       1.0796889
  3586   6 C     3763   1 H                                       1.0813597
  3587   6 C     3764   1 H                                       1.0807329
  3588   6 C     3765   1 H                                       1.0810998
  3589   6 C     3766   1 H                                       1.0819321
  3590   6 C     3767   1 H                                       1.0796144
  3594   6 C     3768   1 H                                       1.0811797
  3595   6 C     3769   1 H                                       1.0814604
  3596   6 C     3770   1 H                                       1.0801639
  3597   6 C     3771   1 H                                       1.0804447
  3598   6 C     3772   1 H                                       1.0805269
  3602   6 C     3773   1 H                                       1.0804578
  3603   6 C     3774   1 H                                       1.0821077
  3604   6 C     3775   1 H                                       1.0803751
  3605   6 C     3776   1 H                                       1.0796481
  3606   6 C     3777   1 H                                       1.0804075
  3607   6 C     3778   1 H                                       1.0909752
  3607   6 C     3779   1 H                                       1.0921103
  3610   6 C     3780   1 H                                       1.0818168
  3611   6 C     3781   1 H                                       1.0818748
  3612   6 C     3782   1 H                                       1.0815269
  3613   6 C     3783   1 H                                       1.0810609
  3614   6 C     3784   1 H                                       1.0793357
  3618   6 C     3785   1 H                                       1.0822950
  3619   6 C     3786   1 H                                       1.0816206
  3620   6 C     3787   1 H                                       1.0811822
  3621   6 C     3788   1 H                                       1.0789512
  3622   6 C     3789   1 H                                       1.0797987
  3626   6 C     3790   1 H                                       1.0818036
  3627   6 C     3791   1 H                                       1.0813466
  3628   6 C     3792   1 H                                       1.0810076
  3629   6 C     3793   1 H                                       1.0812625
  3630   6 C     3794   1 H                                       1.0804073
  3634   6 C     3795   1 H                                       1.0795176
  3635   6 C     3796   1 H                                       1.0800367
  3636   6 C     3797   1 H                                       1.0792355
  3637   6 C     3798   1 H                                       1.0815971
  3638   6 C     3799   1 H                                       1.0828128
  3642   6 C     3800   1 H                                       1.0816213
  3643   6 C     3801   1 H                                       1.0813705
  3644   6 C     3802   1 H                                       1.0811110
  3645   6 C     3803   1 H                                       1.0814499
  3646   6 C     3804   1 H                                       1.0802089
  3650   6 C     3805   1 H                                       1.0812444
  3651   6 C     3806   1 H                                       1.0805662
  3652   6 C     3807   1 H                                       1.0808833
  3653   6 C     3808   1 H                                       1.0816575
  3654   6 C     3809   1 H                                       1.0816530
  3658   6 C     3810   1 H                                       1.0797534
  3659   6 C     3811   1 H                                       1.0795844
  3660   6 C     3812   1 H                                       1.0804987
  3661   6 C     3813   1 H                                       1.0821409
  3662   6 C     3814   1 H                                       1.0823766
  3666   6 C     3815   1 H                                       1.0807305
  3667   6 C     3816   1 H                                       1.0785803
  3668   6 C     3817   1 H                                       1.0810385
  3669   6 C     3818   1 H                                       1.0803850
  3670   6 C     3819   1 H                                       1.0815969
  3674   6 C     3820   1 H                                       1.0796328
  3675   6 C     3821   1 H                                       1.0804175
  3676   6 C     3822   1 H                                       1.0802963
  3677   6 C     3823   1 H                                       1.0802146
  3678   6 C     3824   1 H                                       1.0775934
  3686   6 C     3825   1 H                                       1.0796717
  3685   6 C     3826   1 H                                       1.0813928
  3684   6 C     3827   1 H                                       1.0814519
  3683   6 C     3828   1 H                                       1.0814548
  3682   6 C     3829   1 H                                       1.0813401
  3550   6 C     3830   1 H                                       1.0872739
  3550   6 C     3831   1 H                                       1.0876582
  3550   6 C     3832   1 H                                       1.0881268
  3680   6 C     3833   1 H                                       1.0947774
  3687   6 C     3834   1 H                                       1.0916040
  3687   6 C     3835   1 H                                       1.0901405
  3688   6 C     3836   6 C                                       1.5375054
  3837   6 C     3838   6 C                                       1.3897715
  3838   6 C     3839   6 C                                       1.3844664
  3839   6 C     3840   6 C                                       1.3841112
  3840   6 C     3841   6 C                                       1.3848715
  3837   6 C     3842   6 C                                       1.3908342
  3841   6 C     3842   6 C                                       1.3829293
  3838   6 C     3843   1 H                                       1.0808815
  3839   6 C     3844   1 H                                       1.0816607
  3840   6 C     3845   1 H                                       1.0805567
  3841   6 C     3846   1 H                                       1.0799736
  3842   6 C     3847   1 H                                       1.0794776
  3836   6 C     3848   6 C                                       1.5349866
  3836   6 C     3849   1 H                                       1.0914896
  3836   6 C     3850   1 H                                       1.0916288
  3851   6 C     3852   6 C                                       1.3898131
  3852   6 C     3853   6 C                                       1.3822371
  3853   6 C     3854   6 C                                       1.3850526
  3854   6 C     3855   6 C                                       1.3835255
  3851   6 C     3856   6 C                                       1.3881914
  3855   6 C     3856   6 C                                       1.3840324
  3852   6 C     3857   1 H                                       1.0806920
  3853   6 C     3858   1 H                                       1.0813584
  3854   6 C     3859   1 H                                       1.0807383
  3855   6 C     3860   1 H                                       1.0811966
  3856   6 C     3861   1 H                                       1.0803213
  3688   6 C     3862   1 H                                       1.0958389
  3848   6 C     3863   1 H                                       1.0941070
  3848   6 C     3864   1 H                                       1.0906329

 * 2 distinct bonds (by element types)

   Z      Z             #   av. dist./Å        max./Å        min./Å
   1 H    6 C        1944     1.0852354     1.0985307     1.0766817
   6 C    6 C        1846     1.4187270     1.5406591     1.3802705


optimized geometry written to: xtbopt.xyz


           -------------------------------------------------
          | TOTAL ENERGY            -5104.246352661020 Eh   |
          | GRADIENT NORM               0.000938503940 Eh/α |
          | HOMO-LUMO GAP               3.675355151610 eV   |
           -------------------------------------------------

------------------------------------------------------------------------
 * finished run on 2024/07/19 at 23:14:59.994     
------------------------------------------------------------------------
 total:
 * wall-time:     8 d, 18 h,  6 min, 41.698 sec
 *  cpu-time:    55 d, 22 h, 26 min, 23.136 sec
 * ratio c/w:     6.389 speedup
 SCF:
 * wall-time:     0 d,  0 h, 16 min, 41.908 sec
 *  cpu-time:     0 d,  1 h, 44 min, 47.240 sec
 * ratio c/w:     6.275 speedup
 ANC optimizer:
 * wall-time:     8 d, 17 h, 48 min, 48.742 sec
 *  cpu-time:    55 d, 20 h, 40 min,  2.544 sec
 * ratio c/w:     6.390 speedup

