3864
 energy: -5104.246352661020 gnorm: 0.000938503940 xtb: 6.6.1 (8d0f1dd)
C           28.56892623089971       45.99333056387634       58.90077948836026
C           28.51961692271621       44.79839691307021       59.60836652086373
C           28.81974116866584       43.61997798813066       58.93376964114884
C           29.16724569328514       43.63709295797026       57.59541193546389
C           29.20984350973115       44.83323429603885       56.90069729964630
C           28.90454008127966       46.01286940633766       57.55753405466958
C           28.12149523505009       44.79044062669305       61.06457337492641
C           26.73621123568962       44.15650989897978       61.22057554821529
C           29.15156591004333       44.05455525541457       61.93030855514965
C           30.53578735896067       44.70640472236046       61.83818580824305
C           30.52998204264552       46.08591940414806       62.45110902746729
C           30.96000430674735       47.17984016525592       61.71107973981706
C           30.97478120895332       48.45239916049691       62.25388340203039
C           30.54851522960458       48.65376311023051       63.55484692260051
C           30.12056415870165       47.57188889724940       64.30637680954520
C           30.11679435563886       46.30024622385483       63.76112026770143
C           31.63156825594128       43.85695850135892       62.50375151489914
C           31.95326140128777       42.52576568813212       61.79665481884658
C           32.83905332576342       41.71414406424235       62.71032739299469
C           34.14699365642452       42.09897023800055       62.98283347436654
C           34.95876459533368       41.32375102268291       63.78966344859840
C           34.47129197235940       40.16013847887504       64.35973206966146
C           33.15946449278523       39.78476192999717       64.12727296276853
C           32.35312381591770       40.55737559145918       63.30964951376080
C           32.58172880052312       42.74072851684502       60.41228113323330
C           32.65141849295875       41.46772876592244       59.54944182336500
C           32.83636830663711       41.83220352618127       58.09688980845893
C           31.94334975326131       41.37596355213446       57.13672106760720
C           32.13603320285409       41.65791162558268       55.79550136622430
C           33.22867149590713       42.40497883712580       55.39425457446852
C           34.11556734659787       42.88435821347916       56.34338262894921
C           33.91881324648385       42.59913380249944       57.68181731664551
C           33.78511228191210       40.53053125736812       59.99124381940975
C           33.95808993788389       39.30570582518190       59.08427703702495
C           32.67358250898796       38.54274133372807       58.88454383110188
C           32.30355268551180       38.12679566795526       57.61140392618876
C           31.14288404542043       37.40204453237780       57.40649676882841
C           30.32889397751670       37.07965120730292       58.47858242572237
C           30.69038106098696       37.48125216865837       59.75382197217866
C           31.85408568153078       38.20176909377133       59.95461198670939
C           35.00084962101172       38.32850514451723       59.65797878820688
C           36.38126012106772       38.94523566510914       59.93492896879793
C           37.23867093904914       37.91352762631585       60.62367473769059
C           37.45939776263683       38.00916134918886       61.99267348279798
C           38.21200216166098       37.05963728341700       62.65995817991175
C           38.76433624832170       35.99693955410965       61.96534088306093
C           38.54745975459043       35.88999134992536       60.60260295488119
C           37.78810561772606       36.83664725094806       59.93980486757528
C           37.02502812446934       39.49461014579433       58.65693805168278
C           38.41880587444645       40.08964038360299       58.90861068053558
C           38.37463574435419       41.03148112519556       60.08435577044249
C           37.52027969070114       42.12831274335407       60.10236227402469
C           37.41333573252300       42.92159948997676       61.22878342510779
C           38.17835816093316       42.64633133588806       62.34999347821256
C           39.06466750596989       41.58467110493120       62.32950777787217
C           39.15558907889782       40.78274074666876       61.20542937187372
C           38.96510401146248       40.78598971256515       57.65089715036061
C           39.37947410088350       39.77873752838340       56.57146539978972
C           40.42988612563146       38.84039650141551       57.10649255496142
C           40.16254340015912       37.48547350804810       57.24057901797519
C           41.13214039684113       36.61205418596823       57.69902209287583
C           42.39334029859132       37.08105789139898       58.01880710729235
C           42.66938112893742       38.43231571162077       57.89409665619240
C           41.69472519704195       39.30364360418004       57.44828659527321
C           39.92900622566899       40.44857059854533       55.30438274973768
C           38.87397864195285       41.14427213181797       54.43535479535809
C           37.73314018869498       40.21975956434935       54.09890256349532
C           36.46024186655927       40.47379956075149       54.59551967619370
C           35.39977334365877       39.63266949463338       54.30934515895216
C           35.59411957418158       38.52257856794620       53.50602302716813
C           36.85767844681418       38.25891597494316       53.00259429735249
C           37.91807747865417       39.09473338972526       53.30288894714635
C           39.55773629173959       41.68256737522685       53.17006793796060
C           38.60390573145195       42.45444208282954       52.25123157730959
C           37.80990912286786       43.47376393825286       53.02839082267298
C           36.43410947143023       43.56780587511042       52.86671905886816
C           35.69744528364446       44.49681456994156       53.58144475595255
C           36.32209011815231       45.33576086728808       54.48790535295799
C           37.69290408148606       45.24823427072992       54.66159268570119
C           38.42794794088880       44.33080482739229       53.93360632529893
C           39.36148595683235       43.16590440765540       51.11548239170794
C           40.12065153863067       42.22549839722196       50.16373735847107
C           39.19904187423328       41.15504952291765       49.63723387725479
C           38.11097138794258       41.47307516799001       48.83140743388650
C           37.24022598909600       40.48911978712752       48.40010670468617
C           37.43351738943625       39.16936695068257       48.77184238644372
C           38.52066149894871       38.83777414535769       49.56081848106338
C           39.39586240038467       39.82275256006731       49.98178556763952
C           40.75196908656525       43.04015882416444       49.02434795910568
C           41.72137903663319       42.21125771566770       48.16743269378059
C           42.93424473806983       41.80791263726694       48.96973497127182
C           43.17672543857029       40.47650551557081       49.28145019782205
C           44.31072738935639       40.10757433048131       49.98517617652247
C           45.21515902153862       41.06973448822289       50.39688372163831
C           44.98860366335360       42.39982701234378       50.08705910272144
C           43.86073548455577       42.76305212213033       49.37540854440029
C           42.17663718936785       42.98814494326547       46.91549747798097
C           41.38171514072179       42.66187604471627       45.64680320446777
C           39.94444421189776       43.10904918836878       45.67587734064411
C           38.94147120741064       42.21605169288554       45.31922802817175
C           37.61957701614141       42.61842629270843       45.25081224690686
C           37.27700301772201       43.92565708411082       45.54582712717402
C           38.26354736429885       44.82245753632190       45.91899494062676
C           39.58495940354386       44.41860579974606       45.97515548247129
C           42.09304383019952       43.28178501332746       44.42383996544550
C           43.08518556288613       42.30712081298603       43.76978660013947
C           44.17310950680383       43.05808400280031       43.04283671761917
C           45.50997667947269       42.80327722837495       43.32246196164069
C           46.51523155337936       43.48910759372564       42.66280014527539
C           46.19404883064193       44.43570366504223       41.70585735322603
C           44.86547838974593       44.69123269877999       41.41120507360825
C           43.86380483240283       44.01209354785428       42.08092809324955
C           42.37084474160520       41.32195801283454       42.81363200104387
C           42.34379916877960       39.87744286493870       43.33983934264707
C           41.44900871746452       39.03541440249455       42.46730815764801
C           41.79850939678204       38.75076647446188       41.15196372212594
C           40.96516147516546       38.00129817232484       40.34278799233926
C           39.76945562083107       37.50849414919266       40.83908101780976
C           39.41824497822504       37.77071996880187       42.15135328904478
C           40.24958442951505       38.53264548777226       42.95384533755519
C           43.76729725607406       39.29338724656304       43.43086033440084
C           44.17377018713968       38.84345020970314       44.84889514960891
C           45.46445457902119       39.48532124968282       45.28662872711925
C           45.50347750288306       40.28646375940153       46.42005164156153
C           46.69453500330165       40.83857219710511       46.85658389295837
C           47.86526552841384       40.59586795021886       46.16011089403680
C           47.83403214464853       39.80794134291039       45.02132990910387
C           46.64302328623902       39.25711306722975       44.58728947371426
C           44.30522384734216       37.31441895857850       44.95237307442854
C           42.98968725699871       36.62472182625718       45.35170137025889
C           43.01519064603254       35.18695481243341       44.90420753399429
C           43.98571268494738       34.30711300822767       45.37008002378705
C           44.00513965028405       32.98643167873024       44.96254173675078
C           43.05378913327854       32.52349739547627       44.06891172792340
C           42.09286083458034       33.39375306921557       43.58285303129128
C           42.07530048370891       34.71436472514546       43.99731686656212
C           42.79086193465827       36.73730710346037       46.87170674900439
C           41.62365997786920       35.89545164031964       47.40028982109398
C           40.33177150006577       36.25826350779872       46.70949864470288
C           39.56900400349020       35.27801632778824       46.08775565943855
C           38.37798997484965       35.59419198511517       45.45789822214451
C           37.92760282489738       36.90270794605331       45.44144909928092
C           38.67721652108008       37.88951729823953       46.05878021368469
C           39.86581178968954       37.56785000564795       46.68802753394775
C           41.42891785478730       36.04069625311710       48.92340296520313
C           42.70534627826477       35.95460846898726       49.78226614585004
H           28.06497992303156       45.82912267700478       61.41141864036053
H           28.80748167088709       44.05096743963762       62.96575261170984
H           29.21324719020194       43.01678114377160       61.60416282920944
H           30.77783516828880       44.81903421987634       60.77664799771642
H           32.54453719276303       44.45402304790183       62.56536823703276
H           31.32896098150997       43.63403367566128       63.53022828784101
H           31.01956749393752       41.97063458848652       61.65895000129566
H           31.97476646665989       43.46540264917761       59.86520392306284
H           33.57928118703426       43.16377352213489       60.52900353154366
H           31.69878390118134       40.93471059642444       59.64518120988886
H           33.60420425536672       40.19583024975412       61.01092236011132
H           34.29706267265443       39.64228566333901       58.09935497213463
H           34.61510632318943       37.91884261786075       60.59601572895620
H           35.11633922172860       37.49390083039374       58.96162257330295
H           36.24667464972844       39.76959228948190       60.64129026868724
H           37.09702715940062       38.69797909131460       57.91582747712268
H           36.37772467267936       40.26857151047074       58.24218071254201
H           39.09865596087390       39.26990883045836       59.16655917011695
H           38.20678637287966       41.46055717340260       57.25115883155499
H           39.83501830008509       41.38360909735412       57.93138431071024
H           38.50230463268871       39.18888268538523       56.28615802187805
H           38.46505225835008       41.98853027637924       54.99788519187774
H           40.38776483188887       42.32579747902109       53.46814773328954
H           39.97421004065847       40.84462811996196       52.61338018046295
H           37.89945629621608       41.74114626629789       51.80606208144343
H           38.64176389494888       43.74484228782548       50.53112299081782
H           40.07535234579833       43.86334284426971       51.55723319528262
H           40.92852155689626       41.74303586181909       50.72289426445011
H           39.96374581551243       43.43763748877299       48.38360444974288
H           41.29404533610381       43.88473188966459       49.45568606868018
H           41.19226137650045       41.30496778161392       47.84899053502500
H           42.13286048608016       44.05953414417900       47.11286953288242
H           43.22220154768702       42.74374202753122       46.71002732215358
H           41.37585625087831       41.57490899928474       45.52327913105356
H           41.35344442393214       43.59999986424310       43.68639515302196
H           42.62768643629390       44.17613240543715       44.74529252613605
H           43.56808373073613       41.73246421025677       44.56510330647320
H           41.33988617835189       41.64810643658031       42.65162259905051
H           42.87046943719917       41.32652827658487       41.84173737304657
H           41.89471025055868       39.89200090445544       44.33803882737330
H           43.84501052969132       38.44577198199399       42.74833728732249
H           44.47688362905225       40.04094601348761       43.07435129801743
H           43.40153736209916       39.15992266204189       45.55632559051283
H           44.64458421413612       36.91336162697882       43.99466868658870
H           45.06992431356021       37.07039151124656       45.69408380303874
H           42.15837480461740       37.11799982255798       44.83747754009299
H           43.70884745155101       36.40545367647650       47.35540754103013
H           42.63916193979285       37.78437421983815       47.13469065864615
H           28.33962242170000       46.91958129191261       59.41087133982208
H           28.92958063830652       46.94912797702531       57.01765510179243
H           29.47666826448913       44.84667423978260       55.85493246600111
H           29.40659526589464       42.71425061532560       57.08856995719935
H           28.78263781417589       42.67436425812880       59.45424585309581
H           31.28957361048415       47.03668925590907       60.69324312346783
H           31.31901966822715       49.28744722629087       61.66009214245045
H           30.55970455489868       49.64445237872927       63.98436813897791
H           29.79292628411626       47.72056581390856       65.32586640192964
H           29.79167089010070       45.46867780057017       64.36928293821663
H           34.54263880112826       43.00923462934274       62.55999432299892
H           35.98023167552769       41.62528045806299       63.96837120799862
H           35.10706680005354       39.54966218959873       64.98509337863071
H           32.76547307959460       38.88405029942394       64.57712828066740
H           31.33264425428894       40.24903859241991       63.12408175871981
H           31.09656281642639       40.77588843833831       57.44174626035799
H           31.43402248591155       41.28526789282650       55.06178726606925
H           33.39371502228347       42.60043423266062       54.34491717899552
H           34.96557644096521       43.47619844283399       56.03359824983572
H           34.61936580140123       42.97120170518826       58.41454776149458
H           34.71537825315696       41.09848898269900       59.99472721328009
H           32.93124551630356       38.37988976389234       56.76785820014439
H           30.87044281900510       37.08977025364130       56.40810917159756
H           29.41938835677800       36.51753901406134       58.32244992597932
H           30.06115953409390       37.22882209359479       60.59587258652316
H           32.12424366888309       38.50365712841464       60.95616663485404
H           37.03404917399852       38.83839995034953       62.54199762278800
H           38.36331838938332       37.14829690886440       63.72719744312818
H           39.35426782011338       35.25462870491738       62.48460158682913
H           38.96346909358418       35.05946488159589       60.05049555011878
H           37.62084347112378       36.72457145137844       58.87991095803883
H           36.92087799896441       42.35162498711472       59.23187928482342
H           36.71964892302675       43.75120958797272       61.24033523457052
H           38.08397225111669       43.25776171892401       63.23570059113246
H           39.67540046415625       41.36605016127051       63.19500485412825
H           39.82906109619294       39.93668290574588       61.20585048701617
H           39.18711529048914       37.10322850333107       56.97404521268370
H           40.89498097027263       35.56307886297731       57.79309242152846
H           43.15537306849688       36.39451440918815       58.35900922708297
H           43.64865609461555       38.81358433781327       58.13722685417243
H           41.92503649174684       40.35475156687281       57.36164731941231
H           40.69119002525888       41.18163669174539       55.57499162395513
H           40.41037370646701       39.67062552913176       54.70981927603392
H           36.28812772632111       41.34233144204825       55.21575419158557
H           34.41940144380123       39.85025507940059       54.71243373181371
H           34.76841741539318       37.86301234307950       53.27545380053100
H           37.01549724276721       37.39419802716276       52.37221119022685
H           38.89629873412775       38.85699198503593       52.91285687111519
H           35.92952920114558       42.89070323979514       52.18931442628438
H           34.62656188375804       44.55103032741619       53.43868203886876
H           35.75000916700246       46.04673547910656       55.06616333642937
H           38.18123901722474       45.89773206633404       55.37197315049966
H           39.49389485282951       44.26213876556770       54.09171309457797
H           37.92538222193285       42.49527301709151       48.53385625106794
H           36.40222335687866       40.75748521041605       47.77049341247180
H           36.74613661889543       38.40162911621957       48.44333150931180
H           38.68227924199367       37.80790477584353       49.84794035550488
H           40.24310769853436       39.54678312673408       50.59435554662937
H           42.47043336703781       39.72163169071548       48.95771066878733
H           44.49923867937021       39.06706326098883       50.20975905416167
H           46.09367824350035       40.77016312275935       50.94946932857231
H           45.69071904211232       43.16349646350817       50.38918452937052
H           43.70989144491002       43.80122618330411       49.11860527838569
H           39.19776695726046       41.19293591818670       45.07748180259598
H           36.85362466607412       41.91119991612695       44.96070646615257
H           36.24781285098843       44.24654785149453       45.48900232083532
H           37.98955794082183       45.83926640972294       46.16288343240814
H           40.34728223763782       45.13240874711976       46.24914197437305
H           45.76684221070074       42.06077256364601       44.06527288570753
H           47.55115736341155       43.28705614471910       42.89509568250656
H           46.97659675503190       44.96919510884320       41.18795534485097
H           44.61073251131157       45.41876452970769       40.65285167217171
H           42.83006091488706       44.22539092054282       41.85830353108626
H           42.73834102366738       39.11102571598416       40.76017298576259
H           41.24707356612694       37.79941579761068       39.31892348082044
H           39.11887888784700       36.92072457930012       40.20661337884972
H           38.49530810370599       37.37910441774211       42.55647964523793
H           39.95785792382816       38.72408887470932       43.97732134046169
H           44.59633830802250       40.47459893794600       46.97682744316411
H           46.70272385879426       41.45390381844301       47.74315321618790
H           48.79685718148352       41.01167698343017       46.51269896441710
H           48.73843576618390       39.60153998838459       44.46697898955380
H           46.62868175047293       38.63473390360082       43.70519287268828
H           44.73985393267291       34.66001281228868       46.05742408384035
H           44.76131999873360       32.31396769993813       45.34238652279237
H           43.06346379561812       31.49084595143482       43.74974099136328
H           41.35159992064334       33.04146218145902       42.87878077871299
H           41.31965597774977       35.38690735525764       43.61335359392895
H           40.42740438316235       38.35353038403547       47.17147613011608
H           38.32694779705027       38.91233706300312       46.06001822805876
H           36.99567135378385       37.15169152318965       44.95256991701079
H           37.79980693010809       34.81594406334571       44.97863269281647
H           39.91262238054573       34.25219668478326       46.09201945039999
H           26.00639947342335       44.68659622989728       60.61214652725137
H           26.75257496002207       43.11596378684869       60.90452200314964
H           26.41533593582210       44.19780304311913       62.25918413362716
H           41.83495649629062       34.84407472208044       47.17660586164991
H           40.95965290863384       37.00686940840334       49.12371762264916
H           40.72736080537805       35.26765902391735       49.25049349579750
C           43.47403294289420       34.64560918059252       49.58111266452219
C           42.30873752507495       36.21653530143021       51.21901598613636
C           41.99540290725849       35.20901702621506       52.12066284508642
C           41.60822585943318       35.50922450699903       53.41550425211290
C           41.52700921578055       36.82266326652548       53.84095896674366
C           41.83201956805700       37.83627710264349       52.94908247191778
C           42.20983689181953       37.53412134973127       51.65496746880169
H           42.04400267867785       34.17198768304748       51.82866119828142
H           41.36949420804674       34.69926849827458       54.09188723379767
H           41.23238358861762       37.05282252309312       54.85449067620400
H           41.79081799283281       38.86783380448408       53.26751137127528
H           42.44325293485285       38.33644182295323       50.97144507958920
C           44.85754480510054       34.70114513180613       50.24135386499511
H           42.90926245143692       33.80043535133007       49.97697242342729
H           43.60036837379204       34.46241809165898       48.51392960457654
C           45.66078485570015       33.46056080859968       49.96583574052077
C           46.02630857969465       32.59740284232563       50.98920927613240
C           46.75047994536752       31.44771112291362       50.72562879189528
C           47.12210783349841       31.14053345590880       49.42876800633566
C           46.77490480208493       32.00108821606137       48.40014549162196
C           46.05579485244552       33.15032380876482       48.66851608625899
H           45.75460311136877       32.82339095562595       52.00912706720426
H           47.02902871062575       30.79489341292504       51.54061781198416
H           47.68349750325141       30.24067063799287       49.21823581637741
H           47.06787873097319       31.77260263509881       47.38469360606248
H           45.80111799640404       33.81588326383361       47.85651636695034
H           43.36270512396935       36.77591889829541       49.47674125497646
H           45.39388036154553       35.57061743071229       49.84940105741963
H           44.74348423135449       34.83448814448989       51.31885560050450
C           58.91439325557645       40.23254845380434       62.82812641358212
C           57.89050655963553       39.39256810106232       62.40618770506326
C           56.69008192011444       39.96289055496619       61.99603386460186
C           56.52211218039447       41.33522634495313       62.00631309085228
C           57.54676393682111       42.16238676403873       62.43499820435510
C           58.74631480479078       41.60628936188897       62.84310628531256
C           58.07192916561513       37.89671641463396       62.44623344814280
C           57.07759637854939       37.29318228707537       63.44427138766194
C           57.90993433007026       37.22971961695447       61.07351292986720
C           59.08188843525800       37.48395815673376       60.10410182314001
C           59.21915186304578       36.28828973707116       59.19340779962986
C           58.18781579676008       35.91860834158372       58.33861666409856
C           58.25958769698845       34.75769719936067       57.59305276292334
C           59.38112071954742       33.95048215925006       57.67584755869234
C           60.43021681175838       34.32112906632701       58.49941074744076
C           60.34519765771837       35.47771729190347       59.25556434802940
C           58.89591354454010       38.79455290142690       59.33183928320665
C           60.09563554092302       39.14530197460964       58.44036131603846
C           61.37848631121110       39.17324014216312       59.22969314887424
C           62.43670110624832       38.34007209584710       58.89131148557045
C           63.62921845668718       38.38280419276671       59.59311074145805
C           63.78042981740771       39.26362258199268       60.64998896292604
C           62.73150572516700       40.09882643789402       60.99766772676580
C           61.54353928603313       40.05587346921931       60.29222779241020
C           59.86931989782070       40.50832142355931       57.74806540658981
C           59.62359556303381       40.38800959512983       56.23552361801110
C           58.91201419567730       41.61364856872187       55.71760826780191
C           57.70403449511650       41.49278349209322       55.04434599866035
C           57.01555946096921       42.61187255070560       54.61200980904577
C           57.52260387871829       43.87678233927245       54.84627909161460
C           58.73560939082816       44.00913032808908       55.50045947031265
C           59.42436636862780       42.88914277551198       55.92852383949097
C           60.95393488715626       40.15252487078271       55.50599552719355
C           60.78697308976771       39.55204134463744       54.10499160132969
C           60.07613028166184       38.22575427675977       54.17678098103519
C           58.82908708768467       38.05462557834012       53.58955108874490
C           58.17057584638881       36.83970659693938       53.66118716971191
C           58.75419069987791       35.77276334741465       54.32060734323472
C           60.00103272918462       35.92700674151874       54.90198327730506
C           60.65362032418509       37.14342365933317       54.83141169521155
C           62.16406376965194       39.38934061496378       53.43574767512524
C           62.63493223193461       40.67040924366349       52.72490463246979
C           64.13902263932414       40.76754107091297       52.74287720724086
C           64.77344409985129       41.83336139048111       53.36861332749967
C           66.15403542175919       41.92318699068010       53.39208179530844
C           66.92521599081392       40.94753652066252       52.78587129225804
C           66.30501831136179       39.87423835814253       52.16917284453295
C           64.92563572826231       39.78498389346600       52.15216200980247
C           62.10117779130315       40.70078497711945       51.28655449727383
C           62.36102392210681       42.04509292884801       50.59667819729977
C           61.69462554242666       43.16410468051247       51.35991660715868
C           62.42793446664424       44.23752118607288       51.84567347470090
C           61.79931646654072       45.28306047632773       52.50260631124185
C           60.43112334924344       45.26223981065899       52.69942499031867
C           59.69051493512033       44.18750781904085       52.24053281834181
C           60.32101328363686       43.15301242918529       51.57630118437231
C           61.84402881414103       42.06728537346471       49.14728069665050
C           62.50501877871231       41.03853156751556       48.22005513234044
C           63.99203346463333       41.26814998585773       48.13285807042613
C           64.88406934056810       40.30601358422921       48.58901809684246
C           66.25102781544943       40.50102062488401       48.50426991841043