3258
 energy: -3427.583834934076 gnorm: 0.000700992655 xtb: 6.6.1 (8d0f1dd)
C           97.93430932725194      102.44086481633495      128.09041251400430
C           97.82996795861838      103.19483534196713      126.77072438488291
C           98.00002360962726      104.70186748092269      126.95234482534875
C           97.94849643180555      105.43772784602105      125.61641786467641
C           98.16436617306557      106.94361199112890      125.75194268422493
C           98.20071620697168      107.61597648951405      124.38195779341363
C           98.45894859223397      109.11996421562361      124.44375309175315
C           98.57932772554831      109.70777845283207      123.03963464161846
C           98.84821457554007      111.21051078560473      123.02359114647103
C           99.02482054973747      111.72523305741566      121.59633971751245
C           99.28900657085096      113.22749380628358      121.52746387469296
C           99.52517521082626      113.69734572231185      120.09313255070488
C           99.76731916552286      115.20240698860461      119.99845208643430
C          100.06384004171551      115.64834630891868      118.56789441457104
C          100.28544765410678      117.15600640385449      118.45754235786123
C          100.63039251084737      117.58063956961718      117.03161279646726
C          100.87601106864197      119.08345046944633      116.90162355555150
C          101.26383716257286      119.46730467542767      115.47497014330631
C          101.58956240963217      120.95176786140496      115.31175589916344
C          102.03832767926733      121.26415725785590      113.88480398774163
C          102.48747543375633      122.71144742179305      113.68312881566497
C          103.04523654915303      122.92301979699366      112.27507143899574
C          103.67732302456805      124.29830986008044      112.06125561097666
C          104.36208099184876      124.38722176686251      110.69732958173489
C          105.03711860207042      125.73449332846438      110.44679054035588
C          105.80670102824340      125.77647200598894      109.12170154659029
C          107.14187603834078      125.03415862061152      109.17984725269696
C          107.81831445288834      124.87827448451183      107.81601706656394
C          108.40557443224675      126.16965786237076      107.25010818668903
C          109.10292936821426      125.93201487785939      105.91014163028763
C          109.74281954119618      127.20422529476565      105.35943810378105
C          110.26961175630790      127.06429264727022      103.92934724129367
C          111.50276525354585      126.17107135260385      103.79686395120270
C          112.24435907745200      126.36863531133197      102.47142395031189
C          111.48107957991991      125.86690900379325      101.24744307626645
C          112.27804416804227      126.07227659335832       99.95940895708929
C          111.58259469666179      125.51529941826972       98.71307510370720
C          111.67951072356013      123.99476675476221       98.61343129671100
C          111.08871857385265      123.42491828020819       97.32388034209507
C          111.35241403544573      121.92296789652296       97.21612491416869
C          110.77281203272646      121.28493840013635       95.95504358595325
C          111.18285161379143      119.81699464358438       95.82827523160897
C          110.59555342187285      119.14619096965374       94.58632066511009
C          111.22231605681081      117.78661042898432       94.26807388253879
C          110.84784323166616      116.67923036855930       95.24712584248485
C          111.54920521567718      115.36177061483970       94.91818232180701
C          111.28085331894519      114.30003035489075       95.98088005542201
C          112.06861187011891      113.00771206951322       95.77703109932661
C          111.86636058474303      112.05341423659395       96.95213394105791
C          112.65155463751212      110.74982552865012       96.83072989051657
C          112.46705471554490      109.87533406272280       98.06915473177557
C          113.26555151586967      108.57564470991356       98.01445155251909
C          113.12004866186291      107.76930742773231       99.30331227477187
C          113.92026990182855      106.46983671887432       99.28062456021806
C          113.83875312001325      105.72139171703861      100.60903892447378
C          114.62923306624137      104.41574519679682      100.58923914597770
C          114.63824784928738      103.72318951267927      101.94968409805335
C          115.43827974639366      102.42278667971888      101.93142670180475
C          115.55206181865985      101.79983575190346      103.32010858082097
C          116.33339915435113      100.48726277169976      103.31616232279269
C          116.52010269864751       99.95441817405364      104.73444588756983
C          117.22661074353572       98.60170967735110      104.81539314051334
C          116.40086760457223       97.46207228235095      104.21879279919314
C          116.84769972995038       96.09067987436356      104.71928391461859
C          115.97386836131102       94.96850955615869      104.16162997914094
C          116.34078916403007       93.61220513593102      104.75879608633247
C          115.53517390631259       92.44580367016373      104.18467951729617
C          114.05620397662146       92.49052890392761      104.56353667022195
C          113.30048973256068       91.25652541600412      104.07312954265183
C          111.78404763162673       91.36363907706486      104.25098524671776
C          111.34991955811593       91.40828174386014      105.71371854900980
C          109.83145982039885       91.46077044758233      105.87579437450509
C          109.44125515770868       91.55372787856392      107.34882982835673
C          107.94526746614170       91.75733936199019      107.57875738828450
C          107.64945290235733       91.90960497618531      109.06898401080603
C          106.21657749014553       92.33567248100590      109.37843959130032
C          106.00003979270573       92.42388671055049      110.88746217313656
C          104.62938330988204       92.96704516193887      111.28384504388703
C          104.40241064950474       92.82636552952449      112.78773500453754
C          103.09700769624038       93.46054755400563      113.26239260014576
C          102.80516042718070       93.10621555978493      114.71895750789994
C          101.54819932448859       93.78649238619427      115.25677464556742
C          101.18718145067741       93.27355446795983      116.64903786066573
C           99.97095978555816       93.97928064004390      117.24536432130195
C           99.55775300792561       93.34351290182273      118.57170448925818
C           98.45523433449991       94.10703920314749      119.30601008000937
C           97.12415562842311       94.11720694375391      118.55486526186887
C           95.93827144462517       94.52324656157414      119.43443648593627
C           96.07218906700093       95.89136879644363      120.10558118773314
C           96.14467903555652       97.05334396025494      119.11786434369324
C           96.35574521023813       98.38231710146542      119.83903305745106
C           96.43748112259904       99.58911993953532      118.90227129231087
C           97.52774203517740       99.49301525170493      117.83238935445311
C           98.90741579172779       99.18635624434573      118.40958128667135
C          100.03991901085143       99.36212401872736      117.40050130426914
C           99.90305148220499       98.49068599457840      116.15424272359948
C          101.15788764651418       98.56344677164577      115.28803416358875
C          100.98478354122199       97.87701298555399      113.93621474942927
C          102.26234818975624       97.95262138361279      113.10520968711970
C          102.11375416872879       97.30021002990803      111.73400659276679
C          103.41672375294033       97.35626433410270      110.94158984207579
C          103.31791622744356       96.63319941752407      109.60172566260833
C          104.64778328675811       96.64671903005862      108.85345206277891
C          104.61604091048736       95.79099714201354      107.59109455918923
C          105.95636065058996       95.80784234357426      106.86117610219645
C          105.95267850433228       94.88987619341829      105.64245877782702
C          107.30762784059831       94.81659570471601      104.93719238919569
C          107.75597139455945       96.11281189638338      104.26248630991888
C          106.82730309223415       96.56744873050189      103.13910710660083
C          107.43876651311665       97.70644460123415      102.32849081015104
C          106.53675522653063       98.15448243331623      101.18177859133658
C          107.18144469586501       99.26486596440175      100.35739422857972
C          106.30317053279552       99.72223919940606       99.19595745439354
C          106.96573759839295      100.84300405555609       98.39979596308592
C          106.09886304638593      101.34478118138637       97.24795306470885
C          106.77839598900916      102.48450218495095       96.49368120318611
C          105.92782544149887      103.03078720318801       95.35004578712595
C          106.64123198314311      104.16253054066419       94.61492537812522
C          105.81767386827558      104.72955865049821       93.46183601425588
C          106.58148027232873      105.81193420894886       92.70840717329177
H          105.55390423133940      103.92398284105614       92.77204348552185
H          104.88498438906751      105.14509223549227       93.85160809116425
H          106.86756946007421      104.96404561536274       95.32197272654382
H          107.59226958755886      103.79045750805942       94.22406826065109
H          105.70120907645008      102.22511050633419       94.64673700279904
H          104.97673649844431      103.39676853301079       95.74468333482166
H          107.00004730264953      103.29427055642421       97.19285033922192
H          107.73171575879186      102.12976566180144       96.09230236120223
H          105.89392408008450      100.52105618911317       96.55908834395302
H          105.14008772955071      101.69112286306215       97.63931179663325
H          107.18527939229892      101.67658840555002       99.07155170544617
H          107.91952902244911      100.48541483362615       98.00202791042457
H          106.10231187345025       98.87461922922354       98.53538522109280
H          105.34411161434490      100.07170869524178       99.58304530115788
H          107.39132859586314      100.11837960759782      101.00723751686944
H          108.13857408640163       98.90980562105874       99.96511848221991
H          106.32393955225396       97.29967443304029      100.53413306914815
H          105.58497270445939       98.50705259242042      101.58451247341675
H          107.63331338069979       98.55558723043059      102.98890305070518
H          108.39985047480197       97.38051649055123      101.92054956765122
H          106.62481845173583       95.72266342641315      102.47504129525026
H          105.87508172763388       96.90013672137917      103.55553079310978
H          107.84440764823042       96.90788739934553      105.00499515007054
H          108.75306643846963       95.94529552584871      103.84456183443194
H          108.06799086422762       94.52830167798062      105.66830956040410
H          107.26414593873059       94.02748527498231      104.18096972082863
H          105.67872462524500       93.88093621071316      105.96495459028317
H          105.18715469571988       95.22029491372156      104.93844310838197
H          106.17914111119116       96.83048661589406      106.55378480263501
H          106.74455363125057       95.48871940765035      107.54843495733815
H          104.36160934540287       94.76220286896255      107.86124603309180
H          103.83348886799126       96.15479272045241      106.92147077604993
H          104.90241122343691       97.67582848948985      108.58774479681412
H          105.43359688285977       96.27403520081205      109.51526102263665
H          103.01212419989676       95.59778237430460      109.77525520291688
H          102.54641771546692       97.10297023214997      108.98655458584462
H          103.69166575558748       98.40049724363109      110.77125242439915
H          104.21303261304720       96.89823931922869      111.53360966325187
H          101.81237507214921       96.25692752221968      111.86043016182916
H          101.32216087841290       97.80349216383233      111.17296381165488
H          102.54352569461942       99.00084966162832      112.97499836092209
H          103.07006881922445       97.45696027230375      113.64949363211923
H          100.71074163316800       96.82986614016946      114.08892244744476
H          100.16660401711889       98.35346306148449      113.38982914181418
H          101.41671664961601       99.61243812822173      115.12172672706507
H          101.99026679768208       98.09739164389445      115.82127418979918
H           99.72281310244904       97.45296131258750      116.44721885163339
H           99.04507640302222       98.82401064092508      115.56728623982463
H          100.09064526978982      100.41002360601580      117.09684877892010
H          100.98459150381396       99.11909060211052      117.89447164928285
H           99.08846381559694       99.85837689724980      119.25240306762092
H           98.92995501859623       98.16324451112770      118.78891265759454
H           97.25387322145987       98.72726327005661      117.10563201934939
H           97.56907395021146      100.44812335815990      117.30242320960363
H           95.47340851003055       99.72030365399245      118.40346702876182
H           96.61757510931939      100.48034859701646      119.50895495996464
H           95.52946710931523       98.54205309317680      120.53809857946301
H           97.27171889376154       98.32407442816341      120.42998805076182
H           96.97084800356571       96.88432437402318      118.42870320409456
H           95.22285398389685       97.09396516325754      118.53215698359999
H           95.21125492792065       96.03787595899081      120.76391014663061
H           96.96362055297061       95.89924327834859      120.73598138667708
H           95.03240558389528       94.51600696840298      118.82233821801235
H           95.81126649248228       93.76919801482207      120.21616096181435
H           97.18962891356442       94.78552780703637      117.69560358409548
H           96.92827787111122       93.11227732424950      118.17108626514982
H           98.30452725488486       93.63902972424547      120.28256810288714
H           98.78924173135829       95.13222379149241      119.47767839432782
H           99.22522693147886       92.31836869623152      118.38909547571492
H          100.43565781905373       93.28953541840521      119.22149719209546
H          100.20597875549316       95.03488793418477      117.40511155389594
H           99.14154966966511       93.92667386116213      116.53726614341092
H          100.98300034938708       92.20111045169423      116.59017848424949
H          102.04314086506209       93.40633285197025      117.31542874929754
H          101.70550669947973       94.86724353520310      115.29427633294090
H          100.71392134214069       93.59830401598025      114.57567925513567
H          102.68759935170993       92.02240201332928      114.80266494786004
H          103.66023766271293       93.38905821003451      115.33786283201040
H          103.15627375887760       94.54587161612741      113.15283935603389
H          102.27314901920552       93.10993880833246      112.63496973032014
H          104.39775233746603       91.76383172123852      113.04555906076371
H          105.23863831002291       93.28483115713395      113.32170846802985
H          104.55506126025897       94.01811080970526      110.99633647716050
H          103.84859370438775       92.42109340415577      110.74777446292413
H          106.12956624333997       91.42901503390863      111.32173857246138
H          106.77147401255652       93.06699745201055      111.31786024423157
H          106.02092470787009       93.30838788477718      108.92245040726355
H          105.51307452730646       91.61916927492149      108.94675610417913
H          107.86120434928698       90.96465613580922      109.57595109031500
H          108.32805798519642       92.65817453857366      109.48211298313042
H          107.61907320820748       92.65553806656001      107.05124407573209
H          107.38499457822009       90.91291054751750      107.17013134388220
H          109.76606241416316       90.64684261306878      107.86548574789271
H          109.97425561505847       92.39447091190533      107.79775881459959
H          109.44294150020086       92.33152493449091      105.34230350063612
H          109.38026069631786       90.57198511863426      105.42777353387798
H          111.73926396432009       90.52822045130908      106.23122590436097
H          111.77802349825073       92.29023662617200      106.19250810581784
H          111.42539078001886       92.26142306395788      103.74117346159758
H          111.31308844175059       90.50279230599040      103.76878842316891
H          113.51581268836168       91.11276988459416      103.01070410085293
H          113.66491903916874       90.37315841077944      104.60361699926331
H          113.97818806589565       92.56001276062187      105.64958282730927
H          113.59448571525391       93.38026738492341      104.13185443013833
H          115.63278122804489       92.43919391915838      103.09590511570393
H          115.96227081555888       91.51091857651566      104.55786382486926
H          117.40274170483598       93.42739963933465      104.57841384116307
H          116.19362045224797       93.64726854650145      105.84063449679316
H          114.92977161560283       95.19550278288779      104.38308892945197
H          116.08264518501636       94.92852818774014      103.07478618816542
H          117.89069603206327       95.91889956375169      104.44257129188476
H          116.79230274183705       96.07378333600508      105.81120944244610
H          115.35224118054634       97.60552495654731      104.48933924612258
H          116.46289922351374       97.48535240992555      103.12898580500200
H          118.19612114788893       98.65704820803639      104.31387293588976
H          117.41363934889463       98.37980635352848      105.87003401512264
H          117.09706254370342      100.68615060718669      105.30795509305011
H          115.54086273779760       99.86495004157895      105.20885166762729
H          115.79578569549382       99.75400643954573      102.71178008738713
H          117.31148170594707      100.64535723415572      102.85357147783493
H          116.04764176970036      102.50909834937389      103.98950907136916
H          114.55071857542931      101.61960026116186      103.71878174335185
H          114.96001346342983      101.71276196871959      101.25167240767379
H          116.44108563099110      102.62356467286551      101.54479380399269
H          115.07243787980269      104.39878935934247      102.69216075124662
H          113.61160560960516      103.51340431025920      102.25924623167401
H          114.19934159744682      103.74323426850471       99.84260704009607
H          115.65927133392196      104.62500914985340      100.28912614496883
H          114.22918854028629      106.36226285979326      101.40427248267581
H          112.79291467841125      105.50783931298828      100.84260094429024
H          113.54747239501944      105.82791361470143       98.47861072375379
H          114.96694733302192      106.69607579795166       99.06217742733750
H          113.45947126181170      108.38002607072781      100.14402809034611
H          112.06453873391216      107.53885356678296       99.46828779001561
H          112.92710966910879      107.97429995356079       97.16722929725002
H          114.32144743876991      108.80747966305813       97.85358086830607
H          112.77944131491488      110.44289487098625       98.94936089203833
H          111.40635727567366      109.63870999666511       98.18790558401791
H          112.32576530649989      110.20473637579387       95.94191789637263
H          113.71404775715087      110.97577509460243       96.70814127054363
H          112.17203401003611      112.56127279324322       97.87000947659529
H          110.80197568228104      111.81956372245872       97.04305032327807
H          111.75238462514724      112.52472732800216       94.85034162848316
H          113.13246247256529      113.24379903911203       95.68332373045907
H          111.53740934467531      114.71470985591928       96.95769047761908
H          110.21354971839632      114.06548202964406       95.99211151978949
H          111.21914773798196      115.00122870787656       93.94132803325419
H          112.62520750588345      115.54164829793297       94.85357948138467
H          111.12335250210650      116.98017667695760       96.25777620406004
H          109.76679600958813      116.53027394022580       95.22735431098367
H          110.90824533570057      117.48149085664383       93.26805216955978
H          112.30972334524891      117.89479825836682       94.25218521795242
H          109.51572926156447      119.02729225685562       94.70961862854506
H          110.75892574809689      119.80452877365968       93.72830848787419
H          112.27312194950923      119.76156884748303       95.77746935323226
H          110.86716081787192      119.28025682592217       96.72525943038009
H          109.68311727668690      121.36030084577787       95.97673954285078
H          111.12391431980406      121.83424679397771       95.07639635365305
H          112.43321817532136      121.75897374336192       97.22620858721855
H          110.93644783067553      121.42052144311194       98.09291067837141
H          110.01274633263886      123.61706408775244       97.29594480550718
H          111.53191029716348      123.93257643529202       96.46330181862653
H          112.73495433798303      123.71240669269554       98.66673558149989
H          111.17097700774045      123.54101328281372       99.46605886569353
H          110.53359578596226      125.81832747184457       98.72005077595868
H          112.04870072010921      125.95349788687481       97.82678214425025
H          112.44522738827105      127.14432627397403       99.82321432952901
H          113.26028543411408      125.60242338726023      100.06166119328569
H          111.25282538844952      124.80745681430102      101.37771500424836
H          110.53593183918437      126.40551472721934      101.16303497147592
H          112.46841724577372      127.43145279857990      102.34422566150359
H          113.20044572517652      125.84157654038698      102.52352190335240
H          112.19150802221390      126.41094749041170      104.61059752901424
H          111.22032787656659      125.12107915684223      103.90009213543999
H          109.46519336653981      126.68364859107498      103.29874311681013
H          110.53081389371653      128.06122076636271      103.56466115958050
H          108.99242971444767      127.99996575471143      105.36970642409935
H          110.55701941262328      127.51641116125650      106.01906175630603
H          109.86839808954720      125.16323358184187      106.03425431479614
H          108.36891687109835      125.56176943437728      105.19144851890987
H          107.61210959916414      126.90742351374158      107.11254325664447
H          109.12250077711442      126.58453338045001      107.96419794374773
H          108.62549133701245      124.14770636352046      107.91194934339634
H          107.09396640775145      124.47591370771414      107.10341321951249
H          107.81717128542368      125.55747708710946      109.86176107071560
H          106.97469491159860      124.03667313399096      109.59053959812401
H          105.18413884260146      125.33891218597677      108.33810688684630
H          105.98935710085559      126.81875460560150      108.85263613400554
H          104.27132354502878      126.51446712726026      110.43816487171922
H          105.72245206642769      125.95722402082585      111.26865946785823
H          105.11057629832693      123.59590060139810      110.63764884162515
H          103.62672499459231      124.20463382701789      109.91005275769996
H          102.91298679753562      125.07508154637979      112.14418053193529
H          104.41729521626563      124.48015800187650      112.84519738091288
H          103.80321536089271      122.16028542365758      112.08285331647450
H          102.24417684128771      122.77730222462357      111.54595962378023
H          101.64834222335141      123.38934588858721      113.85674638930833
H          103.25996101097694      122.95354226069178      114.41793669300419
H          102.87313611768543      120.60503857738655      113.63249905902460
H          101.21989444309986      121.04218206929227      113.19537221595496
H          100.71217636252952      121.55292050207271      115.56320883508954
H          102.38581294003643      121.22486147048232      116.00929625701734
H          102.14145690014662      118.88376409034416      115.18406254558923
H          100.45025087511436      119.20042340328057      114.79631583423348
H           99.97549290617441      119.62863024557610      117.19693902185760
H          101.67603988773668      119.37846915387841      117.58569608804723
H          101.52880382923287      117.04604436043267      116.71168948943473
H           99.82001372918313      117.28743124051002      116.36037250857466
H           99.38382516747419      117.68047115668841      118.78575678058159
H          101.09718180582563      117.45083393715913      119.12760516797681
H          100.95576886003607      115.12824374350474      118.20956883632256
H           99.23568074487501      115.35601295231768      117.91827330860191
H           98.88743055912407      115.73501723220083      120.36972127800158
H          100.60887281592835      115.47295715278813      120.64103160805698
H          100.38782044034475      113.16868877872676      119.68108015693397
H           98.66062234107689      113.43150009116992      119.48011239956068
H           98.43763863796565      113.76650728275700      121.95185026569301
H          100.16512124691758      113.46794267485512      122.13439882311665
H           99.85590179721972      111.19388417655887      121.12767197690145
H           98.12508594440655      111.49320456564710      121.02074116125556
H           98.01896129366038      111.73654811804776      123.50372385825085
H           99.75118176301581      111.42378900738125      123.60053524851867
H           99.38911032299292      109.19793985293109      122.51282679128832
H           97.65289551310154      109.50745555604942      122.49545012337603
H           97.64511922309697      109.61211348293710      124.98193274661965
H           99.38121806266437      109.30844949983270      124.99909377796278
H           98.98735890817593      107.14995199313412      123.78338555739199
H           97.24978530916921      107.43673405534770      123.87502810084139
H           97.36355336423711      107.37792176699787      126.35529928750903
H           99.10587789323438      107.12885889481964      126.27585892215490
H           98.71736074891203      105.02813549395637      124.95740443556470
H           96.98214641703396      105.25414429857061      125.14130372102203
H           97.21396613771674      105.08047719708466      127.61045934300815
H           98.95763564398062      104.90008141980334      127.44128783546958
H           98.59492788204339      102.82708673662012      126.08307729294985
H           96.85686142226588      102.99614336198186      126.31502148772842
H           97.80419817757975      101.37248439968877      127.93266723578759
H           98.90888349516729      102.60394714750036      128.54534599774757
H           97.17122979847025      102.78088600222495      128.78753482303179
H          106.85445685876695      106.62261576149068       93.38131952449389
H          107.49530249091197      105.40426368270029       92.28029140504697
H          105.97792418496552      106.21854551743922       91.89981989848735
C          112.85301541775415      130.69947106487695       95.12465063778254
C          112.15025042749565      130.08150799217853       96.32673245349918
C          110.77511577070652      130.70222624108243       96.56406434201483
C          110.01510795842039      130.04772462696198       97.71958858495823
C          110.52703892678666      130.47672104775904       99.09329539385499
C          109.98244137534004      129.61593156989306      100.23265347755597
C          108.47727130974241      129.74615047395108      100.46511670479779
C          108.06074481367753      128.95535192182189      101.70234092158412
C          106.56947841958099      129.02496147275741      102.01929236176004
C          106.26220048704039      128.27687191692510      103.31538344195120
C          104.79842881362703      128.36686007564961      103.73941518488259
C          104.57611339617334      127.72261661816493      105.10655345650210
C          103.12223642737376      127.79651070096179      105.56621462320132
C          102.95475229702051      127.24666350293948      106.98141301776525
C          101.52455307658676      127.35076989182848      107.51491522812950
C          100.54203256113534      126.35434661545874      106.89579017382547
C          100.77161838737923      124.91833383415839      107.36221011769503
C           99.75844317919540      123.95364582093308      106.74835410237522
C          100.10420370819617      122.48158738275761      106.97072612216034
C          100.11859024303615      122.06569028749701      108.43935416037716
C          100.30630108554872      120.55861589829748      108.59120717629165