      -----------------------------------------------------------      
     |                   =====================                   |     
     |                           x T B                           |     
     |                   =====================                   |     
     |                         S. Grimme                         |     
     |          Mulliken Center for Theoretical Chemistry        |     
     |                    University of Bonn                     |     
      -----------------------------------------------------------      

   * xtb version 6.6.1 (8d0f1dd) compiled by 'stahn@M-Bot' on 2023-08-01

   xtb is free software: you can redistribute it and/or modify it under
   the terms of the GNU Lesser General Public License as published by
   the Free Software Foundation, either version 3 of the License, or
   (at your option) any later version.
   
   xtb is distributed in the hope that it will be useful,
   but WITHOUT ANY WARRANTY; without even the implied warranty of
   MERCHANTABILITY or FITNESS FOR A PARTICULAR PURPOSE.  See the
   GNU Lesser General Public License for more details.
   
   Cite this work as:
   * C. Bannwarth, E. Caldeweyher, S. Ehlert, A. Hansen, P. Pracht,
     J. Seibert, S. Spicher, S. Grimme, WIREs Comput. Mol. Sci., 2020, 11,
     e01493. DOI: 10.1002/wcms.1493
   
   for GFN2-xTB:
   * C. Bannwarth, S. Ehlert and S. Grimme., J. Chem. Theory Comput., 2019,
     15, 1652-1671. DOI: 10.1021/acs.jctc.8b01176
   for GFN1-xTB:
   * S. Grimme, C. Bannwarth, P. Shushkov, J. Chem. Theory Comput., 2017,
     13, 1989-2009. DOI: 10.1021/acs.jctc.7b00118
   for GFN0-xTB:
   * P. Pracht, E. Caldeweyher, S. Ehlert, S. Grimme, ChemRxiv, 2019, preprint.
     DOI: 10.26434/chemrxiv.8326202.v1
   for GFN-FF:
   * S. Spicher and S. Grimme, Angew. Chem. Int. Ed., 2020, 59, 15665-15673.
     DOI: 10.1002/anie.202004239
   
   for ALPB and GBSA implicit solvation:
   * S. Ehlert, M. Stahn, S. Spicher, S. Grimme, J. Chem. Theory Comput.,
     2021, 17, 4250-4261. DOI: 10.1021/acs.jctc.1c00471
   
   for DFT-D4:
   * E. Caldeweyher, C. Bannwarth and S. Grimme, J. Chem. Phys., 2017,
     147, 034112. DOI: 10.1063/1.4993215
   * E. Caldeweyher, S. Ehlert, A. Hansen, H. Neugebauer, S. Spicher,
     C. Bannwarth and S. Grimme, J. Chem. Phys., 2019, 150, 154122.
     DOI: 10.1063/1.5090222
   * E. Caldeweyher, J.-M. Mewes, S. Ehlert and S. Grimme, Phys. Chem. Chem. Phys.
     2020, 22, 8499-8512. DOI: 10.1039/D0CP00502A
   
   for sTDA-xTB:
   * S. Grimme and C. Bannwarth, J. Chem. Phys., 2016, 145, 054103.
     DOI: 10.1063/1.4959605
   
   in the mass-spec context:
   * V. Asgeirsson, C. Bauer and S. Grimme, Chem. Sci., 2017, 8, 4879.
     DOI: 10.1039/c7sc00601b
   * J. Koopman and S. Grimme, ACS Omega 2019, 4, 12, 15120-15133.
     DOI: 10.1021/acsomega.9b02011
   
   for metadynamics refer to:
   * S. Grimme, J. Chem. Theory Comput., 2019, 155, 2847-2862
     DOI: 10.1021/acs.jctc.9b00143
   
   for SPH calculations refer to:
   * S. Spicher and S. Grimme, J. Chem. Theory Comput., 2021, 17, 1701-1714
     DOI: 10.1021/acs.jctc.0c01306
   
   with help from (in alphabetical order)
   P. Atkinson, C. Bannwarth, F. Bohle, G. Brandenburg, E. Caldeweyher
   M. Checinski, S. Dohm, S. Ehlert, S. Ehrlich, I. Gerasimov, C. Hölzer
   A. Katbashev, J. Koopman, C. Lavigne, S. Lehtola, F. März, M. Müller,
   F. Musil, H. Neugebauer, J. Pisarek, C. Plett, P. Pracht, F. Pultar,
   J. Seibert, P. Shushkov, S. Spicher, M. Stahn, M. Steiner, T. Strunk,
   J. Stückrath, T. Rose, and J. Unsleber
   
 * started run on 2024/10/03 at 21:24:00.608     

           -------------------------------------------------
          |                Calculation Setup                |
           -------------------------------------------------

          program call               : /home/abt-grimme/AK-bin/xtb input.xyz --input input.inp --opt
          hostname                   : boar082.thch.uni-bonn.de
          coordinate file            : input.xyz
          omp threads                :                     8

   ID    Z sym.   atoms
    1    6 C      1-120, 363-482, 725-844, 1087-1206, 1449-1568, 1811-1930,
                  2173-2292, 2535-2654, 2897-3016
    2    1 H      121-362, 483-724, 845-1086, 1207-1448, 1569-1810,
                  1931-2172, 2293-2534, 2655-2896, 3017-3258

molecular fragmentation (1/2 indicates fragments):
111111111111111111111111111111111111111111111111111111111111111111111111
111111111111111111111111111111111111111111111111111111111111111111111111
111111111111111111111111111111111111111111111111111111111111111111111111
111111111111111111111111111111111111111111111111111111111111111111111111
111111111111111111111111111111111111111111111111111111111111111111111111
112222222222222222222222222222222222222222222222222222222222222222222222
222222222222222222222222222222222222222222222222222222222222222222222222
222222222222222222222222222222222222222222222222222222222222222222222222
222222222222222222222222222222222222222222222222222222222222222222222222
222222222222222222222222222222222222222222222222222222222222222222222222
222222222222222222222222222222222222222222222222222222222222222222222222
222222222222222222222222222222222222222222222222222222222222222222222222
222222222222222222222222222222222222222222222222222222222222222222222222
222222222222222222222222222222222222222222222222222222222222222222222222
222222222222222222222222222222222222222222222222222222222222222222222222
222222222222222222222222222222222222222222222222222222222222222222222222
222222222222222222222222222222222222222222222222222222222222222222222222
222222222222222222222222222222222222222222222222222222222222222222222222
222222222222222222222222222222222222222222222222222222222222222222222222
222222222222222222222222222222222222222222222222222222222222222222222222
222222222222222222222222222222222222222222222222222222222222222222222222
222222222222222222222222222222222222222222222222222222222222222222222222
222222222222222222222222222222222222222222222222222222222222222222222222
222222222222222222222222222222222222222222222222222222222222222222222222
222222222222222222222222222222222222222222222222222222222222222222222222
222222222222222222222222222222222222222222222222222222222222222222222222
222222222222222222222222222222222222222222222222222222222222222222222222
222222222222222222222222222222222222222222222222222222222222222222222222
222222222222222222222222222222222222222222222222222222222222222222222222
222222222222222222222222222222222222222222222222222222222222222222222222
222222222222222222222222222222222222222222222222222222222222222222222222
222222222222222222222222222222222222222222222222222222222222222222222222
222222222222222222222222222222222222222222222222222222222222222222222222
222222222222222222222222222222222222222222222222222222222222222222222222
222222222222222222222222222222222222222222222222222222222222222222222222
222222222222222222222222222222222222222222222222222222222222222222222222
222222222222222222222222222222222222222222222222222222222222222222222222
222222222222222222222222222222222222222222222222222222222222222222222222
222222222222222222222222222222222222222222222222222222222222222222222222
222222222222222222222222222222222222222222222222222222222222222222222222
222222222222222222222222222222222222222222222222222222222222222222222222
222222222222222222222222222222222222222222222222222222222222222222222222
222222222222222222222222222222222222222222222222222222222222222222222222
222222222222222222222222222222222222222222222222222222222222222222222222
222222222222222222222222222222222222222222222222222222222222222222222222
222222222222222222
# atoms in fragment 1/2:   362  2896
 fragment masses (1/2) :     1685.21    13481.68
CMA distance (Bohr)    :   9.223
constraining FC (au)   :  0.0500

           -------------------------------------------------
          |                 G F N 2 - x T B                 |
           -------------------------------------------------

        Reference                      10.1021/acs.jctc.8b01176
      * Hamiltonian:
        H0-scaling (s, p, d)           1.850000    2.230000    2.230000
        zeta-weighting                 0.500000
      * Dispersion:
        s8                             2.700000
        a1                             0.520000
        a2                             5.000000
        s9                             5.000000
      * Repulsion:
        kExp                           1.500000    1.000000
        rExp                           1.000000
      * Coulomb:
        alpha                          2.000000
        third order                    shell-resolved
        anisotropic                    true
        a3                             3.000000
        a5                             4.000000
        cn-shift                       1.200000
        cn-exp                         4.000000
        max-rad                        5.000000


          ...................................................
          :                      SETUP                      :
          :.................................................:
          :  # basis functions                6498          :
          :  # atomic orbitals                6498          :
          :  # shells                         4338          :
          :  # electrons                      6498          :
          :  max. iterations                   250          :
          :  Hamiltonian                  GFN2-xTB          :
          :  restarted?                      false          :
          :  GBSA solvation                  false          :
          :  PC potential                    false          :
          :  electronic temp.          300.0000000     K    :
          :  accuracy                    1.0000000          :
          :  -> integral cutoff          0.2500000E+02      :
          :  -> integral neglect         0.1000000E-07      :
          :  -> SCF convergence          0.1000000E-05 Eh   :
          :  -> wf. convergence          0.1000000E-03 e    :
          :  Broyden damping             0.4000000          :
          ...................................................

 iter      E             dE          RMSdq      gap      omega  full diag
   1  -3473.5433971 -0.347354E+04  0.244E+00   11.28       0.0  T
   2  -3478.6297350 -0.508634E+01  0.134E+00   11.42       1.0  T
   3  -3478.8357478 -0.206013E+00  0.595E-01   11.42       1.0  T
   4  -3478.8561935 -0.204457E-01  0.757E-02   11.44       1.0  T
   5  -3478.8572708 -0.107725E-02  0.396E-02   11.44       1.0  T
   6  -3478.8574782 -0.207466E-03  0.667E-03   11.45       1.0  T
   7  -3478.8574950 -0.167211E-04  0.125E-03   11.45       1.4  T
   8  -3478.8574961 -0.111776E-05  0.397E-04   11.45       4.4  T
   9  -3478.8574961 -0.710770E-07  0.145E-04   11.45      12.1  T
  10  -3478.8574962 -0.394493E-08  0.441E-05   11.45      39.7  T

   *** convergence criteria satisfied after 10 iterations ***

         #    Occupation            Energy/Eh            Energy/eV
      -------------------------------------------------------------
         1        2.0000           -0.6246413             -16.9974
       ...           ...                  ...                  ...
      3243        2.0000           -0.4019905             -10.9387
      3244        2.0000           -0.4018998             -10.9363
      3245        2.0000           -0.4017908             -10.9333
      3246        2.0000           -0.4017726             -10.9328
      3247        2.0000           -0.4015761             -10.9274
      3248        2.0000           -0.4014371             -10.9237
      3249        2.0000           -0.4009741             -10.9111 (HOMO)
      3250                          0.0196956               0.5359 (LUMO)
      3251                          0.0214132               0.5827
      3252                          0.0215581               0.5866
      3253                          0.0218145               0.5936
      3254                          0.0221845               0.6037
       ...                                ...                  ...
      6498                          0.3852079              10.4820
      -------------------------------------------------------------
                  HL-Gap            0.4206698 Eh           11.4470 eV
             Fermi-level           -0.1906393 Eh           -5.1876 eV

 SCC (total)                   0 d,  0 h, 14 min, 37.089 sec
 SCC setup                      ...        0 min,  0.497 sec (  0.057%)
 Dispersion                     ...        0 min,  3.579 sec (  0.408%)
 classical contributions        ...        0 min,  0.145 sec (  0.017%)
 integral evaluation            ...        0 min,  6.034 sec (  0.688%)
 iterations                     ...       10 min, 30.383 sec ( 71.872%)
 molecular gradient             ...        3 min, 47.653 sec ( 25.956%)
 printout                       ...        0 min,  8.797 sec (  1.003%)

         :::::::::::::::::::::::::::::::::::::::::::::::::::::
         ::                     SUMMARY                     ::
         :::::::::::::::::::::::::::::::::::::::::::::::::::::
         :: total energy           -3427.581181353991 Eh    ::
         :: gradient norm              0.018659283679 Eh/a0 ::
         :: HOMO-LUMO gap             11.447007009230 eV    ::
         ::.................................................::
         :: SCC energy             -3478.857496153555 Eh    ::
         :: -> isotropic ES            0.416098241117 Eh    ::
         :: -> anisotropic ES          1.124135416899 Eh    ::
         :: -> anisotropic XC          1.947152181289 Eh    ::
         :: -> dispersion             -4.073040518553 Eh    ::
         :: repulsion energy          50.620153022534 Eh    ::
         :: add. restraining           0.000000000000 Eh    ::
         :: total charge              -0.000000000014 e     ::
         :::::::::::::::::::::::::::::::::::::::::::::::::::::

      ----------------------------------------------------------- 
     |              Fast Inertial Relaxation Engine              |
      ----------------------------------------------------------- 

          ...................................................
          :                      SETUP                      :
          :.................................................:
          :   energy convergence        0.5000000E-05 Eh    :
          :   grad. convergence         0.1000000E-02 Eh/a0 :
          :   optimization log               true           :
          :   writing optlog all                1     steps :
          :   Hessian reset                    20     steps :
          :   time step scaling                 5     steps :
          :   maximium step len.        1.0000000     a0    :
          :   initial time step         0.2500000     fs    :
          :   maximum time step         1.2500000     fs    :
          :   power reset thr           0.0000000     au    :
          :   alpha parameter           0.1000000           :
          :   BFGS update                   false           :
          :   preconditioning               false           :
          ...................................................

........................................................................
.............................. CYCLE    1 ..............................
........................................................................

 iter      E             dE          RMSdq      gap      omega  full diag
   1  -3478.8611268 -0.347886E+04  0.271E-04   11.45       0.0  T
   2  -3478.8611268 -0.294690E-07  0.154E-04   11.45      11.3  T
   3  -3478.8611268 -0.628006E-09  0.499E-05   11.45      35.1  T
     SCC iter.                  ...        3 min,  5.071 sec
     gradient                   ...        3 min, 49.113 sec
 * total energy  : -3427.5812205 Eh     change    :  -0.3910459E-04 Eh
   gradient norm :     0.0171409 Eh/a0  converged?    E=F G=F D=F
   time step     :     0.2500000 fs     power     :   0.1989100E-08
   step length   :     0.0021868 a0     speed     :   0.2115874E-03

........................................................................
.............................. CYCLE    2 ..............................
........................................................................

 iter      E             dE          RMSdq      gap      omega  full diag
   1  -3478.8664102 -0.347887E+04  0.392E-04   11.45       0.0  T
   2  -3478.8664102 -0.618711E-07  0.223E-04   11.45       7.8  T
   3  -3478.8664102 -0.143382E-08  0.723E-05   11.45      24.2  T
     SCC iter.                  ...        3 min,  2.199 sec
     gradient                   ...        3 min, 48.951 sec
 * total energy  : -3427.5812716 Eh     change    :  -0.5118184E-04 Eh
   gradient norm :     0.0149575 Eh/a0  converged?    E=F G=F D=F
   time step     :     0.2500000 fs     power     :   0.2529925E-08
   step length   :     0.0031911 a0     speed     :   0.3087543E-03

........................................................................
.............................. CYCLE    3 ..............................
........................................................................

 iter      E             dE          RMSdq      gap      omega  full diag
   1  -3478.8731140 -0.347887E+04  0.498E-04   11.45       0.0  T
   2  -3478.8731141 -0.993068E-07  0.284E-04   11.45       6.2  T
   3  -3478.8731141 -0.221371E-08  0.915E-05   11.45      19.2  T
     SCC iter.                  ...        2 min, 56.361 sec
     gradient                   ...        3 min, 48.213 sec
 * total energy  : -3427.5813268 Eh     change    :  -0.5515142E-04 Eh
   gradient norm :     0.0122318 Eh/a0  converged?    E=F G=F D=F
   time step     :     0.2500000 fs     power     :   0.2625429E-08
   step length   :     0.0040664 a0     speed     :   0.3934462E-03

........................................................................
.............................. CYCLE    4 ..............................
........................................................................

 iter      E             dE          RMSdq      gap      omega  full diag
   1  -3478.8809388 -0.347888E+04  0.583E-04   11.45       0.0  T
   2  -3478.8809389 -0.134727E-06  0.333E-04   11.45       5.3  T
   3  -3478.8809389 -0.302452E-08  0.106E-04   11.45      16.5  T
     SCC iter.                  ...        3 min,  0.635 sec
     gradient                   ...        3 min, 49.472 sec
 * total energy  : -3427.5813774 Eh     change    :  -0.5058034E-04 Eh
   gradient norm :     0.0091605 Eh/a0  converged?    E=F G=F D=F
   time step     :     0.2500000 fs     power     :   0.2273761E-08
   step length   :     0.0047784 a0     speed     :   0.4623361E-03

........................................................................
.............................. CYCLE    5 ..............................
........................................................................

 iter      E             dE          RMSdq      gap      omega  full diag
   1  -3478.8895162 -0.347889E+04  0.643E-04   11.45       0.0  T
   2  -3478.8895163 -0.160687E-06  0.367E-04   11.45       4.8  T
   3  -3478.8895164 -0.357340E-08  0.115E-04   11.45      15.2  T
     SCC iter.                  ...        2 min, 55.674 sec
     gradient                   ...        3 min, 49.123 sec
 * total energy  : -3427.5814160 Eh     change    :  -0.3863685E-04 Eh
   gradient norm :     0.0061117 Eh/a0  converged?    E=F G=F D=F
   time step     :     0.2500000 fs     power     :   0.1556389E-08
   step length   :     0.0052976 a0     speed     :   0.5125754E-03

........................................................................
.............................. CYCLE    6 ..............................
........................................................................

 iter      E             dE          RMSdq      gap      omega  full diag
   1  -3478.8992948 -0.347890E+04  0.744E-04   11.45       0.0  T
   2  -3478.8992950 -0.205447E-06  0.425E-04   11.45       4.1  T
   3  -3478.8992950 -0.480259E-08  0.130E-04   11.45      13.5  T
     SCC iter.                  ...        2 min, 55.809 sec
     gradient                   ...        3 min, 48.669 sec
 * total energy  : -3427.5814393 Eh     change    :  -0.2324682E-04 Eh
   gradient norm :     0.0039981 Eh/a0  converged?    E=F G=F D=F
   time step     :     0.2750000 fs     power     :   0.5379377E-09
   step length   :     0.0061799 a0     speed     :   0.5435826E-03

........................................................................
.............................. CYCLE    7 ..............................
........................................................................

 iter      E             dE          RMSdq      gap      omega  full diag
   1  -3478.9092130 -0.347891E+04  0.786E-04   11.45       0.0  T
   2  -3478.9092132 -0.204022E-06  0.451E-04   11.44       3.9  T
   3  -3478.9092132 -0.494947E-08  0.126E-04   11.44      13.9  T
     SCC iter.                  ...        2 min, 55.298 sec
     gradient                   ...        3 min, 46.919 sec
 * total energy  : -3427.5814420 Eh     change    :  -0.2707744E-05 Eh
   gradient norm :     0.0051805 Eh/a0  converged?    E=T G=F D=F
   time step     :     0.3025000 fs     power     :  -0.4329986E-09
   step length   :     0.0066455 a0     speed     :   0.5313947E-03

........................................................................
.............................. CYCLE    8 ..............................
........................................................................
 * reset velocities

 iter      E             dE          RMSdq      gap      omega  full diag
   1  -3478.9090894 -0.347891E+04  0.137E-05   11.44       0.0  T
   2  -3478.9090894 -0.595719E-10  0.738E-06   11.44     237.3  T
   3  -3478.9090894 -0.422915E-10  0.331E-06   11.44     529.5  T
     SCC iter.                  ...        2 min, 57.544 sec
     gradient                   ...        3 min, 49.156 sec
 * total energy  : -3427.5814425 Eh     change    :  -0.5735064E-06 Eh
   gradient norm :     0.0051158 Eh/a0  converged?    E=T G=F D=T
   time step     :     0.1512500 fs     power     :   0.4986916E-10
   step length   :     0.0001111 a0     speed     :   0.1777027E-04

........................................................................
.............................. CYCLE    9 ..............................
........................................................................

 iter      E             dE          RMSdq      gap      omega  full diag
   1  -3478.9088443 -0.347891E+04  0.279E-05   11.44       0.0  T
   2  -3478.9088443 -0.231921E-09  0.163E-05   11.44     107.5  T
   3  -3478.9088443  0.213731E-10  0.405E-06   11.44     432.4  T
     SCC iter.                  ...        2 min, 57.124 sec
     gradient                   ...        3 min, 48.801 sec
 * total energy  : -3427.5814436 Eh     change    :  -0.1105455E-05 Eh
   gradient norm :     0.0049951 Eh/a0  converged?    E=T G=F D=T
   time step     :     0.1512500 fs     power     :   0.9676412E-10
   step length   :     0.0002208 a0     speed     :   0.3531815E-04

........................................................................
.............................. CYCLE   10 ..............................
........................................................................

 iter      E             dE          RMSdq      gap      omega  full diag
   1  -3478.9084831 -0.347891E+04  0.410E-05   11.44       0.0  T
   2  -3478.9084831 -0.521140E-09  0.239E-05   11.44      73.3  T
   3  -3478.9084831 -0.281943E-10  0.601E-06   11.44     291.6  T
     SCC iter.                  ...        2 min, 58.373 sec
     gradient                   ...        3 min, 49.017 sec
 * total energy  : -3427.5814452 Eh     change    :  -0.1606952E-05 Eh
   gradient norm :     0.0048192 Eh/a0  converged?    E=T G=F D=T
   time step     :     0.1512500 fs     power     :   0.1385885E-09
   step length   :     0.0003280 a0     speed     :   0.5245042E-04

........................................................................
.............................. CYCLE   11 ..............................
........................................................................

 iter      E             dE          RMSdq      gap      omega  full diag
   1  -3478.9080141 -0.347891E+04  0.538E-05   11.44       0.0  T
   2  -3478.9080141 -0.783984E-09  0.314E-05   11.44      55.9  T
   3  -3478.9080141 -0.532054E-10  0.783E-06   11.44     223.6  T
     SCC iter.                  ...        2 min, 58.369 sec
     gradient                   ...        3 min, 47.847 sec
 * total energy  : -3427.5814473 Eh     change    :  -0.2025477E-05 Eh
   gradient norm :     0.0045932 Eh/a0  converged?    E=T G=F D=T
   time step     :     0.1512500 fs     power     :   0.1735428E-09
   step length   :     0.0004313 a0     speed     :   0.6897313E-04

........................................................................
.............................. CYCLE   12 ..............................
........................................................................

 iter      E             dE          RMSdq      gap      omega  full diag
   1  -3478.9074483 -0.347891E+04  0.658E-05   11.44       0.0  T
   2  -3478.9074483 -0.109276E-08  0.384E-05   11.44      45.6  T
   3  -3478.9074483 -0.118234E-10  0.948E-06   11.44     184.7  T
     SCC iter.                  ...        3 min,  2.117 sec
     gradient                   ...        3 min, 47.060 sec
 * total energy  : -3427.5814496 Eh     change    :  -0.2355138E-05 Eh
   gradient norm :     0.0043248 Eh/a0  converged?    E=T G=F D=T
   time step     :     0.1512500 fs     power     :   0.2002947E-09
   step length   :     0.0005296 a0     speed     :   0.8470474E-04

........................................................................
.............................. CYCLE   13 ..............................
........................................................................

 iter      E             dE          RMSdq      gap      omega  full diag
   1  -3478.9067998 -0.347891E+04  0.769E-05   11.44       0.0  T
   2  -3478.9067998 -0.150339E-08  0.449E-05   11.44      39.0  T
   3  -3478.9067998 -0.272848E-10  0.109E-05   11.44     160.3  T
     SCC iter.                  ...        3 min,  1.763 sec
     gradient                   ...        3 min, 47.680 sec
 * total energy  : -3427.5814522 Eh     change    :  -0.2586646E-05 Eh
   gradient norm :     0.0040242 Eh/a0  converged?    E=T G=F D=T
   time step     :     0.1512500 fs     power     :   0.2180882E-09
   step length   :     0.0006220 a0     speed     :   0.9948041E-04

........................................................................
.............................. CYCLE   14 ..............................
........................................................................

 iter      E             dE          RMSdq      gap      omega  full diag
   1  -3478.9060067 -0.347891E+04  0.968E-05   11.44       0.0  T
   2  -3478.9060067 -0.222281E-08  0.565E-05   11.44      31.0  T
   3  -3478.9060067 -0.827640E-10  0.135E-05   11.44     129.7  T
     SCC iter.                  ...        2 min, 57.333 sec
     gradient                   ...        3 min, 50.390 sec
 * total energy  : -3427.5814552 Eh     change    :  -0.3000342E-05 Eh
   gradient norm :     0.0036693 Eh/a0  converged?    E=T G=F D=T
   time step     :     0.1663750 fs     power     :   0.2271211E-09
   step length   :     0.0007877 a0     speed     :   0.1145284E-03

........................................................................
.............................. CYCLE   15 ..............................
........................................................................

 iter      E             dE          RMSdq      gap      omega  full diag
   1  -3478.9050691 -0.347891E+04  0.119E-04   11.44       0.0  T
   2  -3478.9050691 -0.325053E-08  0.697E-05   11.44      25.1  T
   3  -3478.9050691 -0.400178E-10  0.162E-05   11.44     108.3  T
     SCC iter.                  ...        2 min, 57.825 sec
     gradient                   ...        3 min, 48.969 sec
 * total energy  : -3427.5814586 Eh     change    :  -0.3338362E-05 Eh
   gradient norm :     0.0032761 Eh/a0  converged?    E=T G=F D=T
   time step     :     0.1830125 fs     power     :   0.2251140E-09
   step length   :     0.0009794 a0     speed     :   0.1294448E-03

........................................................................
.............................. CYCLE   16 ..............................
........................................................................

 iter      E             dE          RMSdq      gap      omega  full diag
   1  -3478.9040083 -0.347890E+04  0.143E-04   11.44       0.0  T
   2  -3478.9040083 -0.444061E-08  0.840E-05   11.44      20.9  T
   3  -3478.9040083 -0.158707E-09  0.187E-05   11.44      93.8  T
     SCC iter.                  ...        3 min,  5.077 sec
     gradient                   ...        3 min, 49.517 sec
 * total energy  : -3427.5814621 Eh     change    :  -0.3522230E-05 Eh
   gradient norm :     0.0028835 Eh/a0  converged?    E=T G=F D=F
   time step     :     0.2013138 fs     power     :   0.2110586E-09
   step length   :     0.0011958 a0     speed     :   0.1436773E-03

........................................................................
.............................. CYCLE   17 ..............................
........................................................................

 iter      E             dE          RMSdq      gap      omega  full diag
   1  -3478.9028814 -0.347890E+04  0.168E-04   11.44       0.0  T
   2  -3478.9028814 -0.558111E-08  0.988E-05   11.44      17.7  T
   3  -3478.9028814 -0.101863E-09  0.205E-05   11.44      85.4  T
     SCC iter.                  ...        2 min, 56.136 sec
     gradient                   ...        3 min, 47.103 sec
 * total energy  : -3427.5814656 Eh     change    :  -0.3523181E-05 Eh
   gradient norm :     0.0025636 Eh/a0  converged?    E=T G=F D=F
   time step     :     0.2214451 fs     power     :   0.1866591E-09
   step length   :     0.0014326 a0     speed     :   0.1564866E-03

........................................................................
.............................. CYCLE   18 ..............................
........................................................................

 iter      E             dE          RMSdq      gap      omega  full diag
   1  -3478.9018001 -0.347890E+04  0.192E-04   11.44       0.0  T
   2  -3478.9018001 -0.615591E-08  0.113E-04   11.44      15.5  T
   3  -3478.9018001 -0.750333E-10  0.210E-05   11.44      83.5  T
     SCC iter.                  ...        2 min, 58.387 sec
     gradient                   ...        3 min, 50.012 sec
 * total energy  : -3427.5814690 Eh     change    :  -0.3367024E-05 Eh
   gradient norm :     0.0024061 Eh/a0  converged?    E=T G=F D=F
   time step     :     0.2435896 fs     power     :   0.1578225E-09
   step length   :     0.0016811 a0     speed     :   0.1669343E-03

........................................................................
.............................. CYCLE   19 ..............................
........................................................................

 iter      E             dE          RMSdq      gap      omega  full diag
   1  -3478.9009374 -0.347890E+04  0.211E-04   11.44       0.0  T
   2  -3478.9009374 -0.561886E-08  0.125E-04   11.44      14.1  T
   3  -3478.9009374 -0.936780E-10  0.195E-05   11.44      90.0  T
     SCC iter.                  ...        2 min, 59.662 sec
     gradient                   ...        3 min, 48.074 sec
 * total energy  : -3427.5814721 Eh     change    :  -0.3178052E-05 Eh
   gradient norm :     0.0024403 Eh/a0  converged?    E=T G=F D=F
   time step     :     0.2679486 fs     power     :   0.1343089E-09
   step length   :     0.0019298 a0     speed     :   0.1742073E-03

........................................................................
.............................. CYCLE   20 ..............................
........................................................................

 iter      E             dE          RMSdq      gap      omega  full diag
   1  -3478.9005017 -0.347890E+04  0.226E-04   11.45       0.0  T
   2  -3478.9005017 -0.420187E-08  0.134E-04   11.45      13.1  T
   3  -3478.9005017 -0.129148E-09  0.165E-05   11.45     106.3  T
     SCC iter.                  ...        3 min,  1.462 sec
     gradient                   ...        3 min, 50.116 sec
 * total energy  : -3427.5814754 Eh     change    :  -0.3229652E-05 Eh
   gradient norm :     0.0025696 Eh/a0  converged?    E=T G=F D=F
   time step     :     0.2947435 fs     power     :   0.1250269E-09
   step length   :     0.0021770 a0     speed     :   0.1786590E-03
 * RMSD in coord.:     0.0005545 a0     energy gain  -0.2940216E-03 Eh

........................................................................
.............................. CYCLE   21 ..............................
........................................................................

 iter      E             dE          RMSdq      gap      omega  full diag
   1  -3478.9006125 -0.347890E+04  0.183E-04   11.45       0.0  T
   2  -3478.9006125 -0.160117E-08  0.108E-04   11.45      16.2  T
   3  -3478.9006125 -0.120053E-09  0.108E-05   11.45     162.4  T
     SCC iter.                  ...        3 min,  5.845 sec
     gradient                   ...        3 min, 50.756 sec
 * total energy  : -3427.5814781 Eh     change    :  -0.2728739E-05 Eh
   gradient norm :     0.0026220 Eh/a0  converged?    E=T G=F D=F
   time step     :     0.2500000 fs     power     :   0.1337500E-09
   step length   :     0.0018513 a0     speed     :   0.1791219E-03

........................................................................
.............................. CYCLE   22 ..............................
........................................................................

 iter      E             dE          RMSdq      gap      omega  full diag
   1  -3478.9011903 -0.347890E+04  0.178E-04   11.45       0.0  T
   2  -3478.9011903 -0.126374E-08  0.104E-04   11.45      16.8  T
   3  -3478.9011903 -0.827640E-10  0.106E-05   11.45     165.0  T
     SCC iter.                  ...        3 min,  0.083 sec
     gradient                   ...        3 min, 49.240 sec
 * total energy  : -3427.5814811 Eh     change    :  -0.2986481E-05 Eh
   gradient norm :     0.0025487 Eh/a0  converged?    E=T G=F D=F
   time step     :     0.2500000 fs     power     :   0.1474233E-09
   step length   :     0.0018646 a0     speed     :   0.1804143E-03

........................................................................
.............................. CYCLE   23 ..............................
........................................................................

 iter      E             dE          RMSdq      gap      omega  full diag
   1  -3478.9021892 -0.347890E+04  0.177E-04   11.45       0.0  T
   2  -3478.9021892 -0.179580E-08  0.103E-04   11.45      17.0  T
   3  -3478.9021892 -0.623004E-10  0.119E-05   11.45     147.2  T
     SCC iter.                  ...        3 min,  0.326 sec
     gradient                   ...        3 min, 49.012 sec
 * total energy  : -3427.5814843 Eh     change    :  -0.3169235E-05 Eh
   gradient norm :     0.0023374 Eh/a0  converged?    E=T G=F D=F
   time step     :     0.2500000 fs     power     :   0.1569408E-09
   step length   :     0.0018941 a0     speed     :   0.1832688E-03

........................................................................
.............................. CYCLE   24 ..............................
........................................................................

 iter      E             dE          RMSdq      gap      omega  full diag
   1  -3478.9035384 -0.347890E+04  0.180E-04   11.45       0.0  T
   2  -3478.9035384 -0.272121E-08  0.104E-04   11.44      16.8  T
   3  -3478.9035384 -0.142336E-09  0.140E-05   11.44     124.7  T
     SCC iter.                  ...        2 min, 56.908 sec
     gradient                   ...        3 min, 48.832 sec
 * total energy  : -3427.5814875 Eh     change    :  -0.3190355E-05 Eh
   gradient norm :     0.0020114 Eh/a0  converged?    E=T G=F D=F
   time step     :     0.2500000 fs     power     :   0.1555531E-09
   step length   :     0.0019380 a0     speed     :   0.1875110E-03

........................................................................
.............................. CYCLE   25 ..............................
........................................................................

 iter      E             dE          RMSdq      gap      omega  full diag
   1  -3478.9051427 -0.347891E+04  0.184E-04   11.44       0.0  T
   2  -3478.9051427 -0.393311E-08  0.106E-04   11.44      16.5  T
   3  -3478.9051427 -0.895852E-10  0.165E-05   11.44     106.5  T
     SCC iter.                  ...        3 min,  1.020 sec
     gradient                   ...        3 min, 48.403 sec
 * total energy  : -3427.5814904 Eh     change    :  -0.2953874E-05 Eh
   gradient norm :     0.0016321 Eh/a0  converged?    E=T G=F D=F
   time step     :     0.2500000 fs     power     :   0.1406145E-09
   step length   :     0.0019892 a0     speed     :   0.1924610E-03

........................................................................
.............................. CYCLE   26 ..............................
........................................................................

 iter      E             dE          RMSdq      gap      omega  full diag
   1  -3478.9070560 -0.347891E+04  0.205E-04   11.44       0.0  T
   2  -3478.9070560 -0.586488E-08  0.118E-04   11.44      14.9  T
   3  -3478.9070560 -0.141426E-09  0.202E-05   11.44      86.8  T
     SCC iter.                  ...        3 min,  2.655 sec
     gradient                   ...        3 min, 49.880 sec
 * total energy  : -3427.5814931 Eh     change    :  -0.2744091E-05 Eh
   gradient norm :     0.0012966 Eh/a0  converged?    E=T G=F D=F
   time step     :     0.2750000 fs     power     :   0.1113489E-09
   step length   :     0.0022506 a0     speed     :   0.1979583E-03

........................................................................
.............................. CYCLE   27 ..............................
........................................................................

 iter      E             dE          RMSdq      gap      omega  full diag
   1  -3478.9090655 -0.347891E+04  0.220E-04   11.44       0.0  T
   2  -3478.9090655 -0.675664E-08  0.126E-04   11.44      13.9  T
   3  -3478.9090655 -0.149157E-09  0.215E-05   11.44      81.5  T
     SCC iter.                  ...        2 min, 57.297 sec
     gradient                   ...        3 min, 48.785 sec
 * total energy  : -3427.5814955 Eh     change    :  -0.2326719E-05 Eh
   gradient norm :     0.0012554 Eh/a0  converged?    E=T G=F D=F
   time step     :     0.3025000 fs     power     :   0.7646322E-10
   step length   :     0.0025218 a0     speed     :   0.2016482E-03

........................................................................
.............................. CYCLE   28 ..............................
........................................................................

 iter      E             dE          RMSdq      gap      omega  full diag
   1  -3478.9107876 -0.347891E+04  0.218E-04   11.44       0.0  T
   2  -3478.9107876 -0.515229E-08  0.125E-04   11.44      14.0  T
   3  -3478.9107876 -0.211458E-09  0.182E-05   11.44      96.1  T
     SCC iter.                  ...        2 min, 59.144 sec
     gradient                   ...        3 min, 48.823 sec
 * total energy  : -3427.5814973 Eh     change    :  -0.1780953E-05 Eh
   gradient norm :     0.0015060 Eh/a0  converged?    E=T G=F D=F
   time step     :     0.3327500 fs     power     :   0.5414064E-10
   step length   :     0.0027441 a0     speed     :   0.1994813E-03

........................................................................
.............................. CYCLE   29 ..............................
........................................................................

 iter      E             dE          RMSdq      gap      omega  full diag
   1  -3478.9118887 -0.347891E+04  0.204E-04   11.44       0.0  T
   2  -3478.9118887 -0.247564E-08  0.118E-04   11.44      14.9  T
   3  -3478.9118887 -0.140972E-09  0.122E-05   11.44     143.0  T
     SCC iter.                  ...        2 min, 59.395 sec
     gradient                   ...        3 min, 48.951 sec
 * total energy  : -3427.5814990 Eh     change    :  -0.1763338E-05 Eh
   gradient norm :     0.0017345 Eh/a0  converged?    E=T G=F D=F
   time step     :     0.3660250 fs     power     :   0.5343890E-10
   step length   :     0.0029197 a0     speed     :   0.1929518E-03

........................................................................
.............................. CYCLE   30 ..............................
........................................................................

 iter      E             dE          RMSdq      gap      omega  full diag
   1  -3478.9121588 -0.347891E+04  0.192E-04   11.44       0.0  T
   2  -3478.9121588 -0.106184E-08  0.112E-04   11.44      15.6  T
   3  -3478.9121588 -0.140517E-09  0.890E-06   11.44     196.8  T
     SCC iter.                  ...        2 min, 56.562 sec
     gradient                   ...        3 min, 48.726 sec
 * total energy  : -3427.5815013 Eh     change    :  -0.2243348E-05 Eh
   gradient norm :     0.0017429 Eh/a0  converged?    E=T G=F D=F
   time step     :     0.4026275 fs     power     :   0.6625729E-10
   step length   :     0.0031182 a0     speed     :   0.1873307E-03

........................................................................
.............................. CYCLE   31 ..............................
........................................................................

 iter      E             dE          RMSdq      gap      omega  full diag
   1  -3478.9115089 -0.347891E+04  0.193E-04   11.44       0.0  T
   2  -3478.9115089 -0.259843E-08  0.113E-04   11.44      15.5  T
   3  -3478.9115089 -0.204636E-09  0.117E-05   11.44     150.3  T
     SCC iter.                  ...        2 min, 59.521 sec
     gradient                   ...        3 min, 48.086 sec
 * total energy  : -3427.5815041 Eh     change    :  -0.2823244E-05 Eh
   gradient norm :     0.0014993 Eh/a0  converged?    E=T G=F D=F
   time step     :     0.4428903 fs     power     :   0.7546650E-10
   step length   :     0.0033966 a0     speed     :   0.1855075E-03

........................................................................
.............................. CYCLE   32 ..............................
........................................................................

 iter      E             dE          RMSdq      gap      omega  full diag
   1  -3478.9100559 -0.347891E+04  0.205E-04   11.44       0.0  T
   2  -3478.9100559 -0.643013E-08  0.121E-04   11.44      14.5  T
   3  -3478.9100559 -0.149157E-09  0.194E-05   11.44      90.3  T
     SCC iter.                  ...        2 min, 55.522 sec
     gradient                   ...        3 min, 47.772 sec
 * total energy  : -3427.5815071 Eh     change    :  -0.3034329E-05 Eh
   gradient norm :     0.0012097 Eh/a0  converged?    E=T G=F D=F
   time step     :     0.4871793 fs     power     :   0.6793723E-10
   step length   :     0.0037708 a0     speed     :   0.1872250E-03

........................................................................
.............................. CYCLE   33 ..............................
........................................................................

 iter      E             dE          RMSdq      gap      omega  full diag
   1  -3478.9083382 -0.347891E+04  0.205E-04   11.44       0.0  T
   2  -3478.9083382 -0.803857E-08  0.121E-04   11.44      14.5  T
   3  -3478.9083382 -0.241926E-09  0.228E-05   11.44      76.9  T
     SCC iter.                  ...        2 min, 57.766 sec
     gradient                   ...        3 min, 49.887 sec
 * total energy  : -3427.5815098 Eh     change    :  -0.2661803E-05 Eh
   gradient norm :     0.0013004 Eh/a0  converged?    E=T G=F D=F
   time step     :     0.5358972 fs     power     :   0.5215302E-10
   step length   :     0.0041934 a0     speed     :   0.1892797E-03

........................................................................
.............................. CYCLE   34 ..............................
........................................................................

 iter      E             dE          RMSdq      gap      omega  full diag
   1  -3478.9072903 -0.347891E+04  0.182E-04   11.44       0.0  T
   2  -3478.9072903 -0.362388E-08  0.108E-04   11.44      16.2  T
   3  -3478.9072903 -0.677574E-10  0.129E-05   11.44     135.5  T
     SCC iter.                  ...        3 min,  3.165 sec
     gradient                   ...        3 min, 49.169 sec
 * total energy  : -3427.5815126 Eh     change    :  -0.2809385E-05 Eh
   gradient norm :     0.0015516 Eh/a0  converged?    E=T G=F D=F
   time step     :     0.5894869 fs     power     :   0.5395639E-10
   step length   :     0.0045826 a0     speed     :   0.1880429E-03

........................................................................
.............................. CYCLE   35 ..............................
........................................................................

 iter      E             dE          RMSdq      gap      omega  full diag
   1  -3478.9075990 -0.347891E+04  0.189E-04   11.44       0.0  T
   2  -3478.9075990 -0.813543E-09  0.111E-04   11.44      15.8  T
   3  -3478.9075990 -0.151886E-09  0.648E-06   11.44     270.3  T
     SCC iter.                  ...        3 min,  7.129 sec
     gradient                   ...        3 min, 48.508 sec
 * total energy  : -3427.5815164 Eh     change    :  -0.3762804E-05 Eh
   gradient norm :     0.0014676 Eh/a0  converged?    E=T G=F D=F
   time step     :     0.6484356 fs     power     :   0.7135801E-10
   step length   :     0.0050439 a0     speed     :   0.1881540E-03

........................................................................
.............................. CYCLE   36 ..............................
........................................................................

 iter      E             dE          RMSdq      gap      omega  full diag
   1  -3478.9094340 -0.347891E+04  0.251E-04   11.44       0.0  T
   2  -3478.9094340 -0.701357E-08  0.145E-04   11.44      12.1  T
   3  -3478.9094340 -0.183718E-09  0.213E-05   11.44      82.1  T
     SCC iter.                  ...        2 min, 57.630 sec
     gradient                   ...        3 min, 47.283 sec
 * total energy  : -3427.5815210 Eh     change    :  -0.4614839E-05 Eh
   gradient norm :     0.0010906 Eh/a0  converged?    E=T G=F D=F
   time step     :     0.7132792 fs     power     :   0.7396181E-10
   step length   :     0.0057119 a0     speed     :   0.1937024E-03

........................................................................
.............................. CYCLE   37 ..............................
........................................................................

 iter      E             dE          RMSdq      gap      omega  full diag
   1  -3478.9119451 -0.347891E+04  0.288E-04   11.44       0.0  T
   2  -3478.9119451 -0.131622E-07  0.167E-04   11.44      10.5  T
   3  -3478.9119451 -0.343334E-09  0.308E-05   11.44      56.8  T
     SCC iter.                  ...        3 min,  2.242 sec
     gradient                   ...        3 min, 48.772 sec
 * total energy  : -3427.5815253 Eh     change    :  -0.4370733E-05 Eh
   gradient norm :     0.0011881 Eh/a0  converged?    E=T G=F D=F
   time step     :     0.7846071 fs     power     :   0.5739480E-10
   step length   :     0.0065459 a0     speed     :   0.2018065E-03

........................................................................
.............................. CYCLE   38 ..............................
........................................................................

 iter      E             dE          RMSdq      gap      omega  full diag
   1  -3478.9131649 -0.347891E+04  0.254E-04   11.44       0.0  T
   2  -3478.9131649 -0.605360E-08  0.150E-04   11.44      11.7  T
   3  -3478.9131649 -0.140972E-09  0.217E-05   11.44      80.8  T
     SCC iter.                  ...        2 min, 57.853 sec
     gradient                   ...        3 min, 47.828 sec
 * total energy  : -3427.5815299 Eh     change    :  -0.4574778E-05 Eh
   gradient norm :     0.0013313 Eh/a0  converged?    E=T G=F D=F
   time step     :     0.8630678 fs     power     :   0.6238195E-10
   step length   :     0.0073230 a0     speed     :   0.2052382E-03

........................................................................
.............................. CYCLE   39 ..............................
........................................................................

 iter      E             dE          RMSdq      gap      omega  full diag
   1  -3478.9122065 -0.347891E+04  0.280E-04   11.45       0.0  T
   2  -3478.9122065 -0.892032E-08  0.163E-04   11.44      10.7  T
   3  -3478.9122065 -0.320597E-09  0.277E-05   11.44      63.1  T
     SCC iter.                  ...        2 min, 57.612 sec
     gradient                   ...        3 min, 48.735 sec
 * total energy  : -3427.5815356 Eh     change    :  -0.5692675E-05 Eh
   gradient norm :     0.0010077 Eh/a0  converged?    E=F G=F D=F
   time step     :     0.9493746 fs     power     :   0.6769762E-10
   step length   :     0.0082801 a0     speed     :   0.2109661E-03

........................................................................
.............................. CYCLE   40 ..............................
........................................................................

 iter      E             dE          RMSdq      gap      omega  full diag
   1  -3478.9105416 -0.347891E+04  0.312E-04   11.45       0.0  T
   2  -3478.9105416 -0.115074E-07  0.181E-04   11.45       9.7  T
   3  -3478.9105416 -0.327873E-09  0.280E-05   11.45      62.5  T
     SCC iter.                  ...        2 min, 58.958 sec
     gradient                   ...        3 min, 49.302 sec
 * total energy  : -3427.5815412 Eh     change    :  -0.5552085E-05 Eh
   gradient norm :     0.0012421 Eh/a0  converged?    E=F G=F D=F
   time step     :     1.0443120 fs     power     :   0.5575729E-10
   step length   :     0.0094909 a0     speed     :   0.2198328E-03

........................................................................
.............................. CYCLE   41 ..............................
........................................................................

 iter      E             dE          RMSdq      gap      omega  full diag
   1  -3478.9113454 -0.347891E+04  0.304E-04   11.45       0.0  T
   2  -3478.9113454 -0.408090E-08  0.177E-04   11.45       9.9  T
   3  -3478.9113454 -0.378350E-09  0.124E-05   11.45     141.1  T
     SCC iter.                  ...        3 min,  1.026 sec
     gradient                   ...        3 min, 48.489 sec
 * total energy  : -3427.5815480 Eh     change    :  -0.6844391E-05 Eh
   gradient norm :     0.0011312 Eh/a0  converged?    E=F G=F D=F
   time step     :     1.1487432 fs     power     :   0.7128808E-10
   step length   :     0.0106899 a0     speed     :   0.2250956E-03

........................................................................
.............................. CYCLE   42 ..............................
........................................................................

 iter      E             dE          RMSdq      gap      omega  full diag
   1  -3478.9139145 -0.347891E+04  0.383E-04   11.45       0.0  T
   2  -3478.9139145 -0.201717E-07  0.223E-04   11.45       7.8  T
   3  -3478.9139145 -0.629370E-09  0.351E-05   11.45      49.9  T
     SCC iter.                  ...        3 min,  2.212 sec
     gradient                   ...        3 min, 48.143 sec
 * total energy  : -3427.5815557 Eh     change    :  -0.7660688E-05 Eh
   gradient norm :     0.0011620 Eh/a0  converged?    E=F G=F D=F
   time step     :     1.2500000 fs     power     :   0.6438796E-10
   step length   :     0.0122072 a0     speed     :   0.2362225E-03
 * RMSD in coord.:     0.0015793 a0     energy gain  -0.8028889E-04 Eh

........................................................................
.............................. CYCLE   43 ..............................
........................................................................

 iter      E             dE          RMSdq      gap      omega  full diag
   1  -3478.9140023 -0.347891E+04  0.586E-05   11.45       0.0  T
   2  -3478.9140023 -0.126875E-09  0.345E-05   11.45      50.8  T
   3  -3478.9140023  0.727596E-11  0.227E-06   11.45     770.5  T
     SCC iter.                  ...        2 min, 58.620 sec
     gradient                   ...        3 min, 47.704 sec
 * total energy  : -3427.5815571 Eh     change    :  -0.1440213E-05 Eh
   gradient norm :     0.0011925 Eh/a0  converged?    E=T G=F D=F
   time step     :     0.2500000 fs     power     :   0.7466332E-10
   step length   :     0.0023478 a0     speed     :   0.2271655E-03

........................................................................
.............................. CYCLE   44 ..............................
........................................................................

 iter      E             dE          RMSdq      gap      omega  full diag
   1  -3478.9136993 -0.347891E+04  0.568E-05   11.45       0.0  T
   2  -3478.9136993 -0.266482E-09  0.331E-05   11.45      52.9  T
   3  -3478.9136993  0.377440E-10  0.399E-06   11.45     439.6  T
     SCC iter.                  ...        3 min,  5.932 sec
     gradient                   ...        3 min, 48.026 sec
 * total energy  : -3427.5815587 Eh     change    :  -0.1602621E-05 Eh
   gradient norm :     0.0011154 Eh/a0  converged?    E=T G=F D=F
   time step     :     0.2500000 fs     power     :   0.8360356E-10
   step length   :     0.0022814 a0     speed     :   0.2207352E-03

........................................................................
.............................. CYCLE   45 ..............................
........................................................................

 iter      E             dE          RMSdq      gap      omega  full diag
   1  -3478.9130839 -0.347891E+04  0.665E-05   11.45       0.0  T
   2  -3478.9130839 -0.688942E-09  0.386E-05   11.45      45.4  T
   3  -3478.9130839  0.109139E-10  0.731E-06   11.45     239.8  T
     SCC iter.                  ...        2 min, 58.835 sec
     gradient                   ...        3 min, 49.332 sec
 * total energy  : -3427.5815604 Eh     change    :  -0.1706343E-05 Eh
   gradient norm :     0.0009755 Eh/a0  converged?    E=T G=T D=F
   time step     :     0.2500000 fs     power     :   0.8680421E-10
   step length   :     0.0022468 a0     speed     :   0.2173862E-03

   *** GEOMETRY OPTIMIZATION CONVERGED AFTER 45 CYCLES ***

------------------------------------------------------------------------
 total energy gain   :        -0.0003791 Eh       -0.2379 kcal/mol
 total RMSD          :         0.0019233 a0        0.0010 Å
 total power (kW/mol):        -0.0221160 (step)   -0.0001 (real)
------------------------------------------------------------------------

 FIRE (total)                  0 d,  5 h, 20 min, 22.262 sec
 setup                          ...        0 min,  0.116 sec (  0.001%)
 velocities                     ...        0 min,  0.003 sec (  0.000%)
 propagation                    ...        0 min,  0.005 sec (  0.000%)
 singlepoint calculation        ...      320 min, 21.402 sec ( 99.996%)
 log and printout               ...        0 min,  0.673 sec (  0.004%)
 preconditioner                 ...        0 min,  0.000 sec (  0.000%)
 model hessian                  ...        0 min,  0.000 sec (  0.000%)
 hessian update                 ...        0 min,  0.000 sec (  0.000%)

================
 final structure:
================
3258
 xtb: 6.6.1 (8d0f1dd)
C           97.93536764431063      102.44210472376147      128.08994581942730
C           97.83105868754512      103.19568765189976      126.77018117600089
C           98.00088403430101      104.70270385446250      126.95230447449991
C           97.94902934154800      105.43834531458495      125.61617122294317
C           98.16495731492259      106.94427064601544      125.75193815161180
C           98.20096918402280      107.61638167931568      124.38170073082816
C           98.45927649375733      109.12046235988356      124.44385564541476
C           98.57935183016211      109.70824080892891      123.03954631193311
C           98.84848744847672      111.21110438347222      123.02389030299499
C           99.02478440840342      111.72565309799332      121.59634935389791
C           99.28906261818435      113.22810226691750      121.52778833969343
C           99.52507266925390      113.69776390913198      120.09315493684500
C           99.76716214732159      115.20307359413273      119.99888582860262
C          100.06359835233906      115.64886760468458      118.56803522476463
C          100.28525828298194      117.15678097365260      118.45811443019491
C          100.63016720659111      117.58118732060299      117.03186080719253
C          100.87588616681751      119.08424055918395      116.90220207409085
C          101.26364286520212      119.46784106535947      115.47521780390404
C          101.58947632245771      120.95253272427770      115.31226348540289
C          102.03818650270094      121.26461174923844      113.88499402506399
C          102.48744581287669      122.71211285163045      113.68367291617395
C          103.04516336744776      122.92350789339856      112.27537733879558
C          103.67766626190594      124.29880660570535      112.06172249138397
C          104.36191641871970      124.38712102588777      110.69732500544988
C          105.03707759462350      125.73449557553543      110.44681385166997
C          105.80635621037749      125.77673060660941      109.12154503599733
C          107.14159791813201      125.03424084019494      109.18008304287768
C          107.81841124104039      124.87835635626524      107.81614956358209
C          108.40556866069065      126.17012391900263      107.25054601869304
C          109.10300809950367      125.93168180591164      105.91050631296574
C          109.74310260084313      127.20409312938833      105.35990483161716
C          110.26946800534823      127.06414149620903      103.92959558270292
C          111.50284440820548      126.17079697640945      103.79731752251485
C          112.24458891364554      126.36867968947956      102.47181848391165
C          111.48104156813623      125.86690552971223      101.24771269343233
C          112.27840172634521      126.07254675876224       99.95962794977640
C          111.58275861449336      125.51550596846509       98.71328886223331
C          111.67976322328362      123.99463597558646       98.61386359846927
C          111.08871230267017      123.42511873057819       97.32392951147155
C          111.35286231890312      121.92291821426160       97.21636028166769
C          110.77287901183466      121.28515257307721       95.95493523018362
C          111.18354619653621      119.81702212415377       95.82856491736617
C          110.59594030653020      119.14634102001128       94.58632292104737
C          111.22321615919519      117.78685380028739       94.26801779278878
C          110.84815318656209      116.67947202618357       95.24735801892795
C          111.54966859085971      115.36191398583740       94.91781856417644
C          111.28128134553150      114.30016911895991       95.98099200736027
C          112.06934577832264      113.00773166030582       95.77651057711667
C          111.86718366396518      112.05329620693867       96.95198005397852
C          112.65249476296603      110.74942062137352       96.82983428293441
C          112.46774302072730      109.87525024124065       98.06886365207912
C          113.26627756925093      108.57526829017699       98.01364856961513
C          113.12051072756663      107.76938808139717       99.30311599544635
C          113.92080610697015      106.46964101439880       99.27991053006129
C          113.83903588058226      105.72143949119537      100.60877746444295
C          114.62962996193912      104.41552707503968      100.58842297056641
C          114.63841458454158      103.72312509825662      101.94927288585217
C          115.43850228380441      102.42242404554615      101.93042222785814
C          115.55215471988727      101.79966728923715      103.31949098607785
C          116.33343317249962      100.48673837675088      103.31501036382444
C          116.52004534130400       99.95428243633856      104.73372029616337
C          117.22678430328249       98.60128778700968      104.81436279295848
C          116.40029421660797       97.46183431447398      104.21805531605445
C          116.84736992930087       96.09060561428599      104.71933889721124
C          115.97318185198289       94.96852241332567      104.16175310023637
C          116.34023867646412       93.61241244353302      104.75963317107067
C          115.53440280970442       92.44631125993536      104.18526143283457
C          114.05545349744020       92.49123090546962      104.56444783699514
C          113.29988700137037       91.25703421088375      104.07404875623567
C          111.78366378429683       91.36462914689828      104.25192525504281
C          111.34968225436749       91.40808372236677      105.71476987637071
C          109.83116552480770       91.46198601660937      105.87628127098428
C          109.44088202590780       91.55330665801748      107.34948050063424
C          107.94483814636199       91.75814806646734      107.57883787816525
C          107.64875903033403       91.90832682831319      109.06936523435753
C          106.21633462274357       92.33654443204331      109.37873813797997
C          105.99973130098893       92.42292849870059      110.88803375663002
C          104.62958060560928       92.96785573676529      111.28440375549475
C          104.40240693160756       92.82629709462509      112.78836476651344
C          103.09723340348367       93.46146173438372      113.26295605140621
C          102.80513669984303       93.10647250905352      114.71950957330706
C          101.54836960731866       93.78753097431206      115.25724599786869
C          101.18723512259139       93.27422573418919      116.64949298121083
C           99.97110534163700       93.98055179513004      117.24560214169864
C           99.55778324776630       93.34449157278719      118.57185312723661
C           98.45534467733029       94.10832535731770      119.30590791641490
C           97.12446771658132       94.11820209747907      118.55442980043928
C           95.93901633394941       94.52438708583632      119.43428010411286
C           96.07301863463036       95.89223778604928      120.10558757782277
C           96.14570799827517       97.05374553067381      119.11729380390990
C           96.35686666928447       98.38252729171563      119.83892002726219
C           96.43807211778837       99.58957266697050      118.90233815395936
C           97.52773797418396       99.49340776445588      117.83173222403089
C           98.90735274490353       99.18662319572529      118.40932027755913
C          100.04020269851688       99.36186392971975      117.40011750012128
C           99.90256305593424       98.49043715771624      116.15371445516342
C          101.15774052649147       98.56364200506719      115.28758711817160
C          100.98434463736527       97.87660802108309      113.93588628823994
C          102.26219601654763       97.95246137140781      113.10492646490702
C          102.11272275133514       97.30019053398402      111.73347160723087
C          103.41603842195130       97.35637778424848      110.94114257448037
C          103.31710184978631       96.63245992264800      109.60144323789655
C          104.64734122937790       96.64639796238059      108.85329930889564
C          104.61570985683178       95.79022548252699      107.59093183090800
C          105.95639796685072       95.80784573499375      106.86120349364458
C          105.95298936562162       94.88967736945402      105.64237786266057
C          107.30814320168001       94.81692760378168      104.93746489617251
C          107.75592421715592       96.11338337655037      104.26232503419692
C          106.82671592787719       96.56749077707840      103.13891594435485
C          107.43842842169890       97.70673764178063      102.32843949936932
C          106.53619959689213       98.15458028163893      101.18156638100922
C          107.18121780732160       99.26521606702447      100.35741675462606
C          106.30264272606759       99.72242485180888       99.19587810288010
C          106.96552431404653      100.84336985869659       98.39986982758533
C          106.09830380855333      101.34510155388062       97.24801927390811
C          106.77819087152801      102.48493944913018       96.49387803693168
C          105.92722556585790      103.03112349206157       95.35026220936084
C          106.64090977106443      104.16302850923395       94.61534242689891
C          105.81705099643362      104.72994646665379       93.46225950801843
C          106.58107517387238      105.81251968162589       92.70929913440517
H          105.55517171514178      103.92430330264416       92.77262776344097
H          104.88363157247724      105.14450814462509       93.85125281595073
H          106.86819540775620      104.96440958661969       95.32249761131911
H          107.59102919145370      103.79041305628277       94.22400174484494
H          105.70222148844573      102.22561003135218       94.64722614833398
H          104.97578110317102      103.39644851428160       95.74450203668884
H          107.00079717917120      103.29468810567599       97.19311794169110
H          107.73060949600595      102.12967134330846       96.09217605420791
H          105.89497530709798      100.52172304983306       96.55935167677826
H          105.13922631243494      101.69089250360318       97.63899396505913
H          107.18592729926230      101.67695347538397       99.07175525439362
H          107.91843855301889      100.48530033839720       98.00184933523033
H          106.10355603541318       98.87514702329810       98.53548621912164
H          105.34327565523010      100.07125595528520       99.58263539948349
H          107.39170653327896      100.11875172896970      101.00746366705539
H          108.13763170122850       98.90983260887234       99.96508045922020
H          106.32519215375754       97.30013624707610      100.53404461531862
H          105.58417772615317       98.50655126803422      101.58405182746777
H          107.63339828322142       98.55590454655264      102.98910625544814
H          108.39899109471864       97.38059052022389      101.92062016016156
H          106.62591472771314       95.72298218479212      102.47512795832306
H          105.87449755826667       96.89977564540958      103.55537148303814
H          107.84488006721884       96.90879740187472      105.00474342643247
H          108.75265675045858       95.94583965708827      103.84422633888386
H          108.06903672131897       94.52960749694037      105.66846659194070
H          107.26454544238416       94.02871335275431      104.18117303232449
H          105.67977749569579       93.88134326838215      105.96567761400676
H          105.18791266394989       95.22053612644169      104.93867764154436
H          106.17891246587050       96.83077345561865      106.55412291116747
H          106.74487770178924       95.48942926954059      107.54855943375671
H          104.36264756510379       94.76191172870352      107.86182192762976
H          103.83375386134425       96.15423928607240      106.92150918437349
H          104.90204039946794       97.67561480199060      108.58771196184701
H          105.43344415835503       96.27423884254679      109.51512712005066
H          103.01275724126155       95.59739410031202      109.77587503793734
H          102.54636652780354       97.10232702408973      108.98647463799084
H          103.69060214533381       98.40070000175510      110.77058975236585
H          104.21280860525737       96.89910810202277      111.53327338680208
H          101.81182690033270       96.25734520580052      111.86001618277258
H          101.32242586157504       97.80502566455966      111.17309267735922
H          102.54356666138504       99.00074891252845      112.97486655883506
H          103.07019437372172       97.45698059865457      113.64906227128121
H          100.71115997481220       96.82984892885227      114.08903023975942
H          100.16717580458177       98.35376786810005      113.38978740364679
H          101.41620377942098       99.61272802755460      115.12086610387875
H          101.99038310272364       98.09824640265506      115.82102715443064
H           99.72284366551801       97.45312970591159      116.44669644630278
H           99.04541725597760       98.82488432948145      115.56711032561546
H          100.09160275384616      100.40968736135058      117.09652848875614
H          100.98487117423817       99.11843178017452      117.89399741629322
H           99.08922106806797       99.85917976739202      119.25151553828172
H           98.93007647687341       98.16380694441888      118.78851350608848
H           97.25445055558643       98.72708192985534      117.10587975150644
H           97.56969897208435      100.44824025647398      117.30152592387496
H           95.47458834741153       99.72019696468107      118.40322670433548
H           96.61843910623935      100.48109535135330      119.50844307587496
H           95.53027919198649       98.54219407531211      120.53693172000835
H           97.27257842861245       98.32469180610138      120.43030607130049
H           96.97133525811353       96.88448490236007      118.42752472433804
H           95.22368055113822       97.09502225233723      118.53269535974512
H           95.21173765572691       96.03923182257940      120.76275565639061
H           96.96398335279412       95.90035181409731      120.73664122771953
H           95.03334779422049       94.51761287093755      118.82234974003475
H           95.81244954333245       93.77051448675043      120.21588544762324
H           97.18998325272695       94.78595091995116      117.69472350238408
H           96.92903493129657       93.11311176071828      118.17159412024266
H           98.30438017447486       93.64007027902922      120.28206267123949
H           98.78939859672393       95.13344943057001      119.47796691126983
H           99.22453255053072       92.32018993433994      118.38829980601173
H          100.43558210971945       93.28973776238163      119.22166219290534
H          100.20593996185514       95.03634357629674      117.40505286458968
H           99.14208996442150       93.92754313583647      116.53749241559301
H          100.98189967181013       92.20256135984152      116.58960401887610
H          102.04334611612299       93.40580347619731      117.31596908452943
H          101.70567313154869       94.86838742413306      115.29450611933564
H          100.71460501957432       93.59904279868466      114.57629583044987
H          102.68588485034959       92.02328019788948      114.80179773868028
H          103.66056022106592       93.38748196113846      115.33885104350009
H          103.15686518740054       94.54684842442771      113.15336423145402
H          102.27393073417321       93.11087697875217      112.63571491130759
H          104.39603724166398       91.76399707807845      113.04492606290736
H          105.23925960264734       93.28309840719521      113.32302104974347
H          104.55661062007157       94.01918414281060      110.99736141145236
H          103.84896692865598       92.42279825039851      110.74840302039571
H          106.12704668460627       91.42761288553301      111.32078176984392
H          106.77229814529481       93.06408676315752      111.31977545087612
H          106.02265550133494       93.31030582396259      108.92416459531317
H          105.51248101081804       91.62171353087486      108.94654594304163
H          107.85826343977133       90.96251575998544      109.57471560544316
H          108.32861587454276       92.65513961701389      109.48421208261820
H          107.61989112396904       92.65753533908182      107.05265889477062
H          107.38462222913473       90.91495537575049      107.16937045402481
H          109.76440146946426       90.64564787689240      107.86489165729976
H          109.97467787913416       92.39297918586236      107.80006328040754
H          109.44372297027100       92.33383176040262      105.34384374632810
H          109.37966416359164       90.57419951689954      105.42803463133987
H          111.73772085054286       90.52714265052805      106.23116288260802
H          111.77858401764702       92.28910619556642      106.19503975085514
H          111.42516911342071       92.26296798390200      103.74310165957451
H          111.31246113236131       90.50438786363381      103.76992053193409
H          113.51498050752896       91.11428314939648      103.01185381131214
H          113.66418752232234       90.37401938784673      104.60457920739707
H          113.97762723683668       92.56112211688958      105.65061795455468
H          113.59350807029145       93.38084929722564      104.13273978739166
H          115.63150774824867       92.44086357377093      103.09693917407886
H          115.96134716110990       91.51175124184294      104.55841439385892
H          117.40181306646207       93.42812140355527      104.57872353531764
H          116.19328429047903       93.64804070752417      105.84163329793880
H          114.92903016689851       95.19593890908720      104.38251217782690
H          116.08317049750210       94.92833197610985      103.07562871871636
H          117.88972970833032       95.91927059044018      104.44189792259479
H          116.79255356277629       96.07428169611755      105.81140295953364
H          115.35169112262825       97.60605002642673      104.48831625085806
H          116.46319855780200       97.48484019610511      103.12892992766211
H          118.19512320000692       98.65734004236649      104.31201169846221
H          117.41430833776479       98.38006070376262      105.86905661148492
H          117.09683189613229      100.68604143443048      105.30738676372528
H          115.54073586753245       99.86512746834114      105.20838345923420
H          115.79503613649760       99.75381840184883      102.71193687434705
H          117.31119788134029      100.64525155034666      102.85358023185162
H          116.04778638546389      102.50878705109849      103.98906540557500
H          114.55088111620775      101.61992829251496      103.71870688293512
H          114.95938887827715      101.71285854221051      101.25185818417721
H          116.44087347784325      102.62373737722483      101.54482320586366
H          115.07255951666298      104.39870374710792      102.69186675499114
H          113.61181323551854      103.51383771286523      102.25931457961413
H          114.19891318598341      103.74353117331961       99.84279492803793
H          115.65915974811331      104.62541983633440      100.28940331552127
H          114.22940943895225      106.36233179532883      101.40407250326119
H          112.79321770206931      105.50838673034028      100.84277736867855
H          113.54688257179146      105.82823282580519       98.47895830774304
H          114.96687694531253      106.69638283789904       99.06236097431477
H          113.45989977975806      108.38026617382286      100.14375472818195
H          112.06500126384836      107.53949772606762       99.46848234233121
H          112.92656489304261      107.97430880059312       97.16753401268534
H          114.32154422520881      108.80743784417665       97.85337838154058
H          112.78012242262452      110.44304586720743       98.94893175282007
H          111.40704760669317      109.63924397976137       98.18790594015596
H          112.32537257545475      110.20477340832232       95.94200615803811
H          113.71441355697804      110.97548722527908       96.70770372595275
H          112.17284757704832      112.56125456762267       97.86982716100160
H          110.80288853651609      111.81982396838481       97.04308512395254
H          111.75199970141833      112.52507815409820       94.85064092475396
H          113.13259612299500      113.24423323892810       95.68320125183743
H          111.53776234055454      114.71483453356082       96.95785678208104
H          110.21414892914339      114.06570877090235       95.99222331509229
H          111.21840220771557      115.00139512477092       93.94197635947020
H          112.62524532897049      115.54182068735928       94.85341901095104
H          111.12353631840386      116.98019826550497       96.25809346070123
H          109.76729872040407      116.53044704652186       95.22744933098615
H          110.90882524267921      117.48147857726198       93.26865500401456
H          112.31026203326223      117.89474015190196       94.25326763317551
H          109.51649994082304      119.02701943429102       94.70999248715810
H          110.76002231877204      119.80445447516193       93.72898442349944
H          112.27349999245207      119.76198571393346       95.77729103480392
H          110.86816941438050      119.28027582607673       96.72560457781287
H          109.68345417260127      121.35992230786077       95.97710248749313
H          111.12453001907640      121.83402451805549       95.07702968054389
H          112.43341381144003      121.75932596992604       97.22572742130879
H          110.93736863984824      121.42014076990004       98.09316070076380
H          110.01293920931387      123.61681324820398       97.29625642558308
H          111.53244116498681      123.93215933450134       96.46399873288698
H          112.73492979308816      123.71228203142698       98.66662853245899
H          111.17132797873953      123.54056924169889       99.46641290052042
H          110.53372393942021      125.81782725259878       98.72042608930421
H          112.04913523092506      125.95273822650620       97.82723147926735
H          112.44447524843758      127.14425756242549       99.82302182514590
H          113.26022395917963      125.60261545574653      100.06196992945291
H          111.25222492100696      124.80737777693089      101.37760468714795
H          110.53610053299286      126.40557332001451      101.16325684690649
H          112.46727553014796      127.43112998930148      102.34430337376631
H          113.20040413209053      125.84161033185565      102.52347016339502
H          112.19134025347815      126.41149927895864      104.61049594923290
H          111.22094016627655      125.12056537543016      103.90094818646396
H          109.46520976461838      126.68351415827001      103.29869318560388
H          110.53154696397978      128.06042014354571      103.56519526427427
H          108.99258634225598      127.99899615223262      105.36985117122805
H          110.55746638187514      127.51498531421608      106.01894502646483
H          109.86815652653135      125.16253120151337      106.03484701236593
H          108.36896133221315      125.56120882601907      105.19175893180970
[...]
  3011   6 C     3012   6 C                                       1.5262226
  3012   6 C     3013   6 C                                       1.5269986
  3013   6 C     3014   6 C                                       1.5269079
  3014   6 C     3015   6 C                                       1.5285528
  3015   6 C     3016   6 C                                       1.5240497
  3015   6 C     3017   1 H                                       1.0929364
  3015   6 C     3018   1 H                                       1.0911403
  3014   6 C     3019   1 H                                       1.0940036
  3014   6 C     3020   1 H                                       1.0927958
  3013   6 C     3021   1 H                                       1.0915520
  3013   6 C     3022   1 H                                       1.0929073
  3012   6 C     3023   1 H                                       1.0937041
  3012   6 C     3024   1 H                                       1.0928306
  3011   6 C     3025   1 H                                       1.0931161
  3011   6 C     3026   1 H                                       1.0921818
  3010   6 C     3027   1 H                                       1.0929037
  3010   6 C     3028   1 H                                       1.0926436
  3009   6 C     3029   1 H                                       1.0931316
  3009   6 C     3030   1 H                                       1.0922546
  3008   6 C     3031   1 H                                       1.0920247
  3008   6 C     3032   1 H                                       1.0931362
  3007   6 C     3033   1 H                                       1.0932039
  3007   6 C     3034   1 H                                       1.0922680
  3006   6 C     3035   1 H                                       1.0909054
  3006   6 C     3036   1 H                                       1.0924346
  3005   6 C     3037   1 H                                       1.0921704
  3005   6 C     3038   1 H                                       1.0928174
  3004   6 C     3039   1 H                                       1.0910033
  3004   6 C     3040   1 H                                       1.0916752
  3003   6 C     3041   1 H                                       1.0925438
  3003   6 C     3042   1 H                                       1.0932423
  3002   6 C     3043   1 H                                       1.0922370
  3002   6 C     3044   1 H                                       1.0929754
  3001   6 C     3045   1 H                                       1.0911141
  3001   6 C     3046   1 H                                       1.0929412
  3000   6 C     3047   1 H                                       1.0930008
  3000   6 C     3048   1 H                                       1.0924579
  2999   6 C     3049   1 H                                       1.0928773
  2999   6 C     3050   1 H                                       1.0922244
  2998   6 C     3051   1 H                                       1.0922713
  2998   6 C     3052   1 H                                       1.0911544
  2997   6 C     3053   1 H                                       1.0931101
  2997   6 C     3054   1 H                                       1.0924637
  2996   6 C     3055   1 H                                       1.0915184
  2996   6 C     3056   1 H                                       1.0935099
  2995   6 C     3057   1 H                                       1.0907794
  2995   6 C     3058   1 H                                       1.0925317
  2994   6 C     3059   1 H                                       1.0924146
  2994   6 C     3060   1 H                                       1.0909745
  2993   6 C     3061   1 H                                       1.0930643
  2993   6 C     3062   1 H                                       1.0928824
  2992   6 C     3063   1 H                                       1.0923253
  2992   6 C     3064   1 H                                       1.0941602
  2991   6 C     3065   1 H                                       1.0924033
  2991   6 C     3066   1 H                                       1.0908867
  2990   6 C     3067   1 H                                       1.0925498
  2990   6 C     3068   1 H                                       1.0932941
  2989   6 C     3069   1 H                                       1.0932003
  2989   6 C     3070   1 H                                       1.0925317
  2988   6 C     3071   1 H                                       1.0923090
  2988   6 C     3072   1 H                                       1.0933916
  2987   6 C     3073   1 H                                       1.0933272
  2987   6 C     3074   1 H                                       1.0923541
  2986   6 C     3075   1 H                                       1.0925362
  2986   6 C     3076   1 H                                       1.0904807
  2985   6 C     3077   1 H                                       1.0918998
  2985   6 C     3078   1 H                                       1.0939338
  2984   6 C     3079   1 H                                       1.0925547
  2984   6 C     3080   1 H                                       1.0937830
  2983   6 C     3081   1 H                                       1.0934829
  2983   6 C     3082   1 H                                       1.0899985
  2982   6 C     3083   1 H                                       1.0888139
  2982   6 C     3084   1 H                                       1.0929574
  2981   6 C     3085   1 H                                       1.0932881
  2981   6 C     3086   1 H                                       1.0928270
  2980   6 C     3087   1 H                                       1.0925581
  2980   6 C     3088   1 H                                       1.0911824
  2979   6 C     3089   1 H                                       1.0913969
  2979   6 C     3090   1 H                                       1.0927636
  2978   6 C     3091   1 H                                       1.0928969
  2978   6 C     3092   1 H                                       1.0934997
  2977   6 C     3093   1 H                                       1.0928937
  2977   6 C     3094   1 H                                       1.0928951
  2976   6 C     3095   1 H                                       1.0921103
  2976   6 C     3096   1 H                                       1.0911496
  2975   6 C     3097   1 H                                       1.0925008
  2975   6 C     3098   1 H                                       1.0927991
  2974   6 C     3099   1 H                                       1.0922721
  2974   6 C     3100   1 H                                       1.0920839
  2973   6 C     3101   1 H                                       1.0912179
  2973   6 C     3102   1 H                                       1.0935851
  2972   6 C     3103   1 H                                       1.0914422
  2972   6 C     3104   1 H                                       1.0923981
  2971   6 C     3105   1 H                                       1.0913617
  2971   6 C     3106   1 H                                       1.0928193
  2970   6 C     3107   1 H                                       1.0923318
  2970   6 C     3108   1 H                                       1.0926838
  2969   6 C     3109   1 H                                       1.0915704
  2969   6 C     3110   1 H                                       1.0932875
  2968   6 C     3111   1 H                                       1.0923999
  2968   6 C     3112   1 H                                       1.0897674
  2967   6 C     3113   1 H                                       1.0927066
  2967   6 C     3114   1 H                                       1.0904998
  2966   6 C     3115   1 H                                       1.0928406
  2966   6 C     3116   1 H                                       1.0925790
  2965   6 C     3117   1 H                                       1.0908877
  2965   6 C     3118   1 H                                       1.0928802
  2964   6 C     3119   1 H                                       1.0921268
  2964   6 C     3120   1 H                                       1.0919484
  2963   6 C     3121   1 H                                       1.0926038
  2963   6 C     3122   1 H                                       1.0930716
  2962   6 C     3123   1 H                                       1.0922321
  2962   6 C     3124   1 H                                       1.0926688
  2961   6 C     3125   1 H                                       1.0927124
  2961   6 C     3126   1 H                                       1.0924029
  2960   6 C     3127   1 H                                       1.0922830
  2960   6 C     3128   1 H                                       1.0934504
  2959   6 C     3129   1 H                                       1.0921183
  2959   6 C     3130   1 H                                       1.0920381
  2958   6 C     3131   1 H                                       1.0926851
  2958   6 C     3132   1 H                                       1.0932801
  2957   6 C     3133   1 H                                       1.0924819
  2957   6 C     3134   1 H                                       1.0923136
  2956   6 C     3135   1 H                                       1.0935189
  2956   6 C     3136   1 H                                       1.0927785
  2955   6 C     3137   1 H                                       1.0928270
  2955   6 C     3138   1 H                                       1.0932258
  2954   6 C     3139   1 H                                       1.0912679
  2954   6 C     3140   1 H                                       1.0918623
  2953   6 C     3141   1 H                                       1.0930828
  2953   6 C     3142   1 H                                       1.0911106
  2952   6 C     3143   1 H                                       1.0920485
  2952   6 C     3144   1 H                                       1.0930831
  2951   6 C     3145   1 H                                       1.0932052
  2951   6 C     3146   1 H                                       1.0912021
  2950   6 C     3147   1 H                                       1.0926059
  2950   6 C     3148   1 H                                       1.0929086
  2949   6 C     3149   1 H                                       1.0934487
  2949   6 C     3150   1 H                                       1.0910032
  2948   6 C     3151   1 H                                       1.0923907
  2948   6 C     3152   1 H                                       1.0930073
  2947   6 C     3153   1 H                                       1.0927955
  2947   6 C     3154   1 H                                       1.0927354
  2946   6 C     3155   1 H                                       1.0898386
  2946   6 C     3156   1 H                                       1.0925729
  2945   6 C     3157   1 H                                       1.0932166
  2945   6 C     3158   1 H                                       1.0934437
  2944   6 C     3159   1 H                                       1.0926665
  2944   6 C     3160   1 H                                       1.0934377
  2943   6 C     3161   1 H                                       1.0928104
  2943   6 C     3162   1 H                                       1.0898957
  2942   6 C     3163   1 H                                       1.0925492
  2942   6 C     3164   1 H                                       1.0931952
  2941   6 C     3165   1 H                                       1.0930796
  2941   6 C     3166   1 H                                       1.0913552
  2940   6 C     3167   1 H                                       1.0914814
  2940   6 C     3168   1 H                                       1.0923859
  2939   6 C     3169   1 H                                       1.0925694
  2939   6 C     3170   1 H                                       1.0921438
  2938   6 C     3171   1 H                                       1.0930043
  2938   6 C     3172   1 H                                       1.0920464
  2937   6 C     3173   1 H                                       1.0925955
  2937   6 C     3174   1 H                                       1.0931191
  2936   6 C     3175   1 H                                       1.0927743
  2936   6 C     3176   1 H                                       1.0918784
  2935   6 C     3177   1 H                                       1.0927033
  2935   6 C     3178   1 H                                       1.0936754
  2934   6 C     3179   1 H                                       1.0918754
  2934   6 C     3180   1 H                                       1.0918979
  2933   6 C     3181   1 H                                       1.0922414
  2933   6 C     3182   1 H                                       1.0924298
  2932   6 C     3183   1 H                                       1.0922337
  2932   6 C     3184   1 H                                       1.0921693
  2931   6 C     3185   1 H                                       1.0926381
  2931   6 C     3186   1 H                                       1.0927819
  2930   6 C     3187   1 H                                       1.0924848
  2930   6 C     3188   1 H                                       1.0923418
  2929   6 C     3189   1 H                                       1.0911552
  2929   6 C     3190   1 H                                       1.0925200
  2928   6 C     3191   1 H                                       1.0930894
  2928   6 C     3192   1 H                                       1.0924726
  2927   6 C     3193   1 H                                       1.0927614
  2927   6 C     3194   1 H                                       1.0929516
  2926   6 C     3195   1 H                                       1.0925734
  2926   6 C     3196   1 H                                       1.0912837
  2925   6 C     3197   1 H                                       1.0926778
  2925   6 C     3198   1 H                                       1.0923655
  2924   6 C     3199   1 H                                       1.0932216
  2924   6 C     3200   1 H                                       1.0927227
  2923   6 C     3201   1 H                                       1.0911996
  2923   6 C     3202   1 H                                       1.0923184
  2922   6 C     3203   1 H                                       1.0936732
  2922   6 C     3204   1 H                                       1.0934054
  2921   6 C     3205   1 H                                       1.0926403
  2921   6 C     3206   1 H                                       1.0918527
  2920   6 C     3207   1 H                                       1.0906098
  2920   6 C     3208   1 H                                       1.0916665
  2919   6 C     3209   1 H                                       1.0933434
  2919   6 C     3210   1 H                                       1.0929717
  2918   6 C     3211   1 H                                       1.0933174
  2918   6 C     3212   1 H                                       1.0914621
  2917   6 C     3213   1 H                                       1.0912896
  2917   6 C     3214   1 H                                       1.0917772
  2916   6 C     3215   1 H                                       1.0930178
  2916   6 C     3216   1 H                                       1.0937619
  2915   6 C     3217   1 H                                       1.0930160
  2915   6 C     3218   1 H                                       1.0914352
  2914   6 C     3219   1 H                                       1.0914590
  2914   6 C     3220   1 H                                       1.0918388
  2913   6 C     3221   1 H                                       1.0922321
  2913   6 C     3222   1 H                                       1.0928146
  2912   6 C     3223   1 H                                       1.0915073
  2912   6 C     3224   1 H                                       1.0911978
  2911   6 C     3225   1 H                                       1.0935759
  2911   6 C     3226   1 H                                       1.0920741
  2910   6 C     3227   1 H                                       1.0937908
  2910   6 C     3228   1 H                                       1.0919197
  2909   6 C     3229   1 H                                       1.0913954
  2909   6 C     3230   1 H                                       1.0929278
  2908   6 C     3231   1 H                                       1.0928202
  2908   6 C     3232   1 H                                       1.0917565
  2907   6 C     3233   1 H                                       1.0926341
  2907   6 C     3234   1 H                                       1.0919879
  2906   6 C     3235   1 H                                       1.0919340
  2906   6 C     3236   1 H                                       1.0925578
  2905   6 C     3237   1 H                                       1.0932290
  2905   6 C     3238   1 H                                       1.0923268
  2904   6 C     3239   1 H                                       1.0929636
  2904   6 C     3240   1 H                                       1.0930376
  2903   6 C     3241   1 H                                       1.0924054
  2903   6 C     3242   1 H                                       1.0920667
  2902   6 C     3243   1 H                                       1.0929027
  2902   6 C     3244   1 H                                       1.0921019
  2901   6 C     3245   1 H                                       1.0922859
  2901   6 C     3246   1 H                                       1.0916281
  2900   6 C     3247   1 H                                       1.0913998
  2900   6 C     3248   1 H                                       1.0921220
  2899   6 C     3249   1 H                                       1.0928632
  2899   6 C     3250   1 H                                       1.0925875
  2898   6 C     3251   1 H                                       1.0920200
  2898   6 C     3252   1 H                                       1.0929326
  2897   6 C     3253   1 H                                       1.0879321
  2897   6 C     3254   1 H                                       1.0868758
  2897   6 C     3255   1 H                                       1.0880901
  3016   6 C     3256   1 H                                       1.0879388
  3016   6 C     3257   1 H                                       1.0882160
  3016   6 C     3258   1 H                                       1.0870492

 * 2 distinct bonds (by element types)

   Z      Z             #   av. dist./Å        max./Å        min./Å
   1 H    6 C        2178     1.0922969     1.0941880     1.0855352
   6 C    6 C        1071     1.5273426     1.5367345     1.5208814


optimized geometry written to: xtbopt.xyz


           -------------------------------------------------
          | TOTAL ENERGY            -3427.581560413708 Eh   |
          | GRADIENT NORM               0.000976242653 Eh/α |
          | HOMO-LUMO GAP              11.445447811451 eV   |
           -------------------------------------------------

------------------------------------------------------------------------
 * finished run on 2024/10/04 at 03:06:48.971     
------------------------------------------------------------------------
 total:
 * wall-time:     0 d,  5 h, 42 min, 48.349 sec
 *  cpu-time:     1 d,  5 h, 30 min, 38.372 sec
 * ratio c/w:     5.165 speedup
 SCF:
 * wall-time:     0 d,  0 h, 14 min, 37.213 sec
 *  cpu-time:     0 d,  1 h, 33 min,  4.316 sec
 * ratio c/w:     6.366 speedup
 ANC optimizer:
 * wall-time:     0 d,  5 h, 27 min, 28.900 sec
 *  cpu-time:     1 d,  3 h, 56 min, 36.216 sec
 * ratio c/w:     5.120 speedup

