3258
 energy: -3427.581560413708 gnorm: 0.000976242653 xtb: 6.6.1 (8d0f1dd)
C           97.93536764431063      102.44210472376147      128.08994581942730
C           97.83105868754512      103.19568765189976      126.77018117600089
C           98.00088403430101      104.70270385446250      126.95230447449991
C           97.94902934154800      105.43834531458495      125.61617122294317
C           98.16495731492259      106.94427064601544      125.75193815161180
C           98.20096918402280      107.61638167931568      124.38170073082816
C           98.45927649375733      109.12046235988356      124.44385564541476
C           98.57935183016211      109.70824080892891      123.03954631193311
C           98.84848744847672      111.21110438347222      123.02389030299499
C           99.02478440840342      111.72565309799332      121.59634935389791
C           99.28906261818435      113.22810226691750      121.52778833969343
C           99.52507266925390      113.69776390913198      120.09315493684500
C           99.76716214732159      115.20307359413273      119.99888582860262
C          100.06359835233906      115.64886760468458      118.56803522476463
C          100.28525828298194      117.15678097365260      118.45811443019491
C          100.63016720659111      117.58118732060299      117.03186080719253
C          100.87588616681751      119.08424055918395      116.90220207409085
C          101.26364286520212      119.46784106535947      115.47521780390404
C          101.58947632245771      120.95253272427770      115.31226348540289
C          102.03818650270094      121.26461174923844      113.88499402506399
C          102.48744581287669      122.71211285163045      113.68367291617395
C          103.04516336744776      122.92350789339856      112.27537733879558
C          103.67766626190594      124.29880660570535      112.06172249138397
C          104.36191641871970      124.38712102588777      110.69732500544988
C          105.03707759462350      125.73449557553543      110.44681385166997
C          105.80635621037749      125.77673060660941      109.12154503599733
C          107.14159791813201      125.03424084019494      109.18008304287768
C          107.81841124104039      124.87835635626524      107.81614956358209
C          108.40556866069065      126.17012391900263      107.25054601869304
C          109.10300809950367      125.93168180591164      105.91050631296574
C          109.74310260084313      127.20409312938833      105.35990483161716
C          110.26946800534823      127.06414149620903      103.92959558270292
C          111.50284440820548      126.17079697640945      103.79731752251485
C          112.24458891364554      126.36867968947956      102.47181848391165
C          111.48104156813623      125.86690552971223      101.24771269343233
C          112.27840172634521      126.07254675876224       99.95962794977640
C          111.58275861449336      125.51550596846509       98.71328886223331
C          111.67976322328362      123.99463597558646       98.61386359846927
C          111.08871230267017      123.42511873057819       97.32392951147155
C          111.35286231890312      121.92291821426160       97.21636028166769
C          110.77287901183466      121.28515257307721       95.95493523018362
C          111.18354619653621      119.81702212415377       95.82856491736617
C          110.59594030653020      119.14634102001128       94.58632292104737
C          111.22321615919519      117.78685380028739       94.26801779278878
C          110.84815318656209      116.67947202618357       95.24735801892795
C          111.54966859085971      115.36191398583740       94.91781856417644
C          111.28128134553150      114.30016911895991       95.98099200736027
C          112.06934577832264      113.00773166030582       95.77651057711667
C          111.86718366396518      112.05329620693867       96.95198005397852
C          112.65249476296603      110.74942062137352       96.82983428293441
C          112.46774302072730      109.87525024124065       98.06886365207912
C          113.26627756925093      108.57526829017699       98.01364856961513
C          113.12051072756663      107.76938808139717       99.30311599544635
C          113.92080610697015      106.46964101439880       99.27991053006129
C          113.83903588058226      105.72143949119537      100.60877746444295
C          114.62962996193912      104.41552707503968      100.58842297056641
C          114.63841458454158      103.72312509825662      101.94927288585217
C          115.43850228380441      102.42242404554615      101.93042222785814
C          115.55215471988727      101.79966728923715      103.31949098607785
C          116.33343317249962      100.48673837675088      103.31501036382444
C          116.52004534130400       99.95428243633856      104.73372029616337
C          117.22678430328249       98.60128778700968      104.81436279295848
C          116.40029421660797       97.46183431447398      104.21805531605445
C          116.84736992930087       96.09060561428599      104.71933889721124
C          115.97318185198289       94.96852241332567      104.16175310023637
C          116.34023867646412       93.61241244353302      104.75963317107067
C          115.53440280970442       92.44631125993536      104.18526143283457
C          114.05545349744020       92.49123090546962      104.56444783699514
C          113.29988700137037       91.25703421088375      104.07404875623567
C          111.78366378429683       91.36462914689828      104.25192525504281
C          111.34968225436749       91.40808372236677      105.71476987637071
C          109.83116552480770       91.46198601660937      105.87628127098428
C          109.44088202590780       91.55330665801748      107.34948050063424
C          107.94483814636199       91.75814806646734      107.57883787816525
C          107.64875903033403       91.90832682831319      109.06936523435753
C          106.21633462274357       92.33654443204331      109.37873813797997
C          105.99973130098893       92.42292849870059      110.88803375663002
C          104.62958060560928       92.96785573676529      111.28440375549475
C          104.40240693160756       92.82629709462509      112.78836476651344
C          103.09723340348367       93.46146173438372      113.26295605140621
C          102.80513669984303       93.10647250905352      114.71950957330706
C          101.54836960731866       93.78753097431206      115.25724599786869
C          101.18723512259139       93.27422573418919      116.64949298121083
C           99.97110534163700       93.98055179513004      117.24560214169864
C           99.55778324776630       93.34449157278719      118.57185312723661
C           98.45534467733029       94.10832535731770      119.30590791641490
C           97.12446771658132       94.11820209747907      118.55442980043928
C           95.93901633394941       94.52438708583632      119.43428010411286
C           96.07301863463036       95.89223778604928      120.10558757782277
C           96.14570799827517       97.05374553067381      119.11729380390990
C           96.35686666928447       98.38252729171563      119.83892002726219
C           96.43807211778837       99.58957266697050      118.90233815395936
C           97.52773797418396       99.49340776445588      117.83173222403089
C           98.90735274490353       99.18662319572529      118.40932027755913
C          100.04020269851688       99.36186392971975      117.40011750012128
C           99.90256305593424       98.49043715771624      116.15371445516342
C          101.15774052649147       98.56364200506719      115.28758711817160
C          100.98434463736527       97.87660802108309      113.93588628823994
C          102.26219601654763       97.95246137140781      113.10492646490702
C          102.11272275133514       97.30019053398402      111.73347160723087
C          103.41603842195130       97.35637778424848      110.94114257448037
C          103.31710184978631       96.63245992264800      109.60144323789655
C          104.64734122937790       96.64639796238059      108.85329930889564
C          104.61570985683178       95.79022548252699      107.59093183090800
C          105.95639796685072       95.80784573499375      106.86120349364458
C          105.95298936562162       94.88967736945402      105.64237786266057
C          107.30814320168001       94.81692760378168      104.93746489617251
C          107.75592421715592       96.11338337655037      104.26232503419692
C          106.82671592787719       96.56749077707840      103.13891594435485
C          107.43842842169890       97.70673764178063      102.32843949936932
C          106.53619959689213       98.15458028163893      101.18156638100922
C          107.18121780732160       99.26521606702447      100.35741675462606
C          106.30264272606759       99.72242485180888       99.19587810288010
C          106.96552431404653      100.84336985869659       98.39986982758533
C          106.09830380855333      101.34510155388062       97.24801927390811
C          106.77819087152801      102.48493944913018       96.49387803693168
C          105.92722556585790      103.03112349206157       95.35026220936084
C          106.64090977106443      104.16302850923395       94.61534242689891
C          105.81705099643362      104.72994646665379       93.46225950801843
C          106.58107517387238      105.81251968162589       92.70929913440517
H          105.55517171514178      103.92430330264416       92.77262776344097
H          104.88363157247724      105.14450814462509       93.85125281595073
H          106.86819540775620      104.96440958661969       95.32249761131911
H          107.59102919145370      103.79041305628277       94.22400174484494
H          105.70222148844573      102.22561003135218       94.64722614833398
H          104.97578110317102      103.39644851428160       95.74450203668884
H          107.00079717917120      103.29468810567599       97.19311794169110
H          107.73060949600595      102.12967134330846       96.09217605420791
H          105.89497530709798      100.52172304983306       96.55935167677826
H          105.13922631243494      101.69089250360318       97.63899396505913
H          107.18592729926230      101.67695347538397       99.07175525439362
H          107.91843855301889      100.48530033839720       98.00184933523033
H          106.10355603541318       98.87514702329810       98.53548621912164
H          105.34327565523010      100.07125595528520       99.58263539948349
H          107.39170653327896      100.11875172896970      101.00746366705539
H          108.13763170122850       98.90983260887234       99.96508045922020
H          106.32519215375754       97.30013624707610      100.53404461531862
H          105.58417772615317       98.50655126803422      101.58405182746777
H          107.63339828322142       98.55590454655264      102.98910625544814
H          108.39899109471864       97.38059052022389      101.92062016016156
H          106.62591472771314       95.72298218479212      102.47512795832306
H          105.87449755826667       96.89977564540958      103.55537148303814
H          107.84488006721884       96.90879740187472      105.00474342643247
H          108.75265675045858       95.94583965708827      103.84422633888386
H          108.06903672131897       94.52960749694037      105.66846659194070
H          107.26454544238416       94.02871335275431      104.18117303232449
H          105.67977749569579       93.88134326838215      105.96567761400676
H          105.18791266394989       95.22053612644169      104.93867764154436
H          106.17891246587050       96.83077345561865      106.55412291116747
H          106.74487770178924       95.48942926954059      107.54855943375671
H          104.36264756510379       94.76191172870352      107.86182192762976
H          103.83375386134425       96.15423928607240      106.92150918437349
H          104.90204039946794       97.67561480199060      108.58771196184701
H          105.43344415835503       96.27423884254679      109.51512712005066
H          103.01275724126155       95.59739410031202      109.77587503793734
H          102.54636652780354       97.10232702408973      108.98647463799084
H          103.69060214533381       98.40070000175510      110.77058975236585
H          104.21280860525737       96.89910810202277      111.53327338680208
H          101.81182690033270       96.25734520580052      111.86001618277258
H          101.32242586157504       97.80502566455966      111.17309267735922
H          102.54356666138504       99.00074891252845      112.97486655883506
H          103.07019437372172       97.45698059865457      113.64906227128121
H          100.71115997481220       96.82984892885227      114.08903023975942
H          100.16717580458177       98.35376786810005      113.38978740364679
H          101.41620377942098       99.61272802755460      115.12086610387875
H          101.99038310272364       98.09824640265506      115.82102715443064
H           99.72284366551801       97.45312970591159      116.44669644630278
H           99.04541725597760       98.82488432948145      115.56711032561546
H          100.09160275384616      100.40968736135058      117.09652848875614
H          100.98487117423817       99.11843178017452      117.89399741629322
H           99.08922106806797       99.85917976739202      119.25151553828172
H           98.93007647687341       98.16380694441888      118.78851350608848
H           97.25445055558643       98.72708192985534      117.10587975150644
H           97.56969897208435      100.44824025647398      117.30152592387496
H           95.47458834741153       99.72019696468107      118.40322670433548
H           96.61843910623935      100.48109535135330      119.50844307587496
H           95.53027919198649       98.54219407531211      120.53693172000835
H           97.27257842861245       98.32469180610138      120.43030607130049
H           96.97133525811353       96.88448490236007      118.42752472433804
H           95.22368055113822       97.09502225233723      118.53269535974512
H           95.21173765572691       96.03923182257940      120.76275565639061
H           96.96398335279412       95.90035181409731      120.73664122771953
H           95.03334779422049       94.51761287093755      118.82234974003475
H           95.81244954333245       93.77051448675043      120.21588544762324
H           97.18998325272695       94.78595091995116      117.69472350238408
H           96.92903493129657       93.11311176071828      118.17159412024266
H           98.30438017447486       93.64007027902922      120.28206267123949
H           98.78939859672393       95.13344943057001      119.47796691126983
H           99.22453255053072       92.32018993433994      118.38829980601173
H          100.43558210971945       93.28973776238163      119.22166219290534
H          100.20593996185514       95.03634357629674      117.40505286458968
H           99.14208996442150       93.92754313583647      116.53749241559301
H          100.98189967181013       92.20256135984152      116.58960401887610
H          102.04334611612299       93.40580347619731      117.31596908452943
H          101.70567313154869       94.86838742413306      115.29450611933564
H          100.71460501957432       93.59904279868466      114.57629583044987
H          102.68588485034959       92.02328019788948      114.80179773868028
H          103.66056022106592       93.38748196113846      115.33885104350009
H          103.15686518740054       94.54684842442771      113.15336423145402
H          102.27393073417321       93.11087697875217      112.63571491130759
H          104.39603724166398       91.76399707807845      113.04492606290736
H          105.23925960264734       93.28309840719521      113.32302104974347
H          104.55661062007157       94.01918414281060      110.99736141145236
H          103.84896692865598       92.42279825039851      110.74840302039571
H          106.12704668460627       91.42761288553301      111.32078176984392
H          106.77229814529481       93.06408676315752      111.31977545087612
H          106.02265550133494       93.31030582396259      108.92416459531317
H          105.51248101081804       91.62171353087486      108.94654594304163
H          107.85826343977133       90.96251575998544      109.57471560544316
H          108.32861587454276       92.65513961701389      109.48421208261820
H          107.61989112396904       92.65753533908182      107.05265889477062
H          107.38462222913473       90.91495537575049      107.16937045402481
H          109.76440146946426       90.64564787689240      107.86489165729976
H          109.97467787913416       92.39297918586236      107.80006328040754
H          109.44372297027100       92.33383176040262      105.34384374632810
H          109.37966416359164       90.57419951689954      105.42803463133987
H          111.73772085054286       90.52714265052805      106.23116288260802
H          111.77858401764702       92.28910619556642      106.19503975085514
H          111.42516911342071       92.26296798390200      103.74310165957451
H          111.31246113236131       90.50438786363381      103.76992053193409
H          113.51498050752896       91.11428314939648      103.01185381131214
H          113.66418752232234       90.37401938784673      104.60457920739707
H          113.97762723683668       92.56112211688958      105.65061795455468
H          113.59350807029145       93.38084929722564      104.13273978739166
H          115.63150774824867       92.44086357377093      103.09693917407886
H          115.96134716110990       91.51175124184294      104.55841439385892
H          117.40181306646207       93.42812140355527      104.57872353531764
H          116.19328429047903       93.64804070752417      105.84163329793880
H          114.92903016689851       95.19593890908720      104.38251217782690
H          116.08317049750210       94.92833197610985      103.07562871871636
H          117.88972970833032       95.91927059044018      104.44189792259479
H          116.79255356277629       96.07428169611755      105.81140295953364
H          115.35169112262825       97.60605002642673      104.48831625085806
H          116.46319855780200       97.48484019610511      103.12892992766211
H          118.19512320000692       98.65734004236649      104.31201169846221
H          117.41430833776479       98.38006070376262      105.86905661148492
H          117.09683189613229      100.68604143443048      105.30738676372528
H          115.54073586753245       99.86512746834114      105.20838345923420
H          115.79503613649760       99.75381840184883      102.71193687434705
H          117.31119788134029      100.64525155034666      102.85358023185162
H          116.04778638546389      102.50878705109849      103.98906540557500
H          114.55088111620775      101.61992829251496      103.71870688293512
H          114.95938887827715      101.71285854221051      101.25185818417721
H          116.44087347784325      102.62373737722483      101.54482320586366
H          115.07255951666298      104.39870374710792      102.69186675499114
H          113.61181323551854      103.51383771286523      102.25931457961413
H          114.19891318598341      103.74353117331961       99.84279492803793
H          115.65915974811331      104.62541983633440      100.28940331552127
H          114.22940943895225      106.36233179532883      101.40407250326119
H          112.79321770206931      105.50838673034028      100.84277736867855
H          113.54688257179146      105.82823282580519       98.47895830774304
H          114.96687694531253      106.69638283789904       99.06236097431477
H          113.45989977975806      108.38026617382286      100.14375472818195
H          112.06500126384836      107.53949772606762       99.46848234233121
H          112.92656489304261      107.97430880059312       97.16753401268534
H          114.32154422520881      108.80743784417665       97.85337838154058
H          112.78012242262452      110.44304586720743       98.94893175282007
H          111.40704760669317      109.63924397976137       98.18790594015596
H          112.32537257545475      110.20477340832232       95.94200615803811
H          113.71441355697804      110.97548722527908       96.70770372595275
H          112.17284757704832      112.56125456762267       97.86982716100160
H          110.80288853651609      111.81982396838481       97.04308512395254
H          111.75199970141833      112.52507815409820       94.85064092475396
H          113.13259612299500      113.24423323892810       95.68320125183743
H          111.53776234055454      114.71483453356082       96.95785678208104
H          110.21414892914339      114.06570877090235       95.99222331509229
H          111.21840220771557      115.00139512477092       93.94197635947020
H          112.62524532897049      115.54182068735928       94.85341901095104
H          111.12353631840386      116.98019826550497       96.25809346070123
H          109.76729872040407      116.53044704652186       95.22744933098615
H          110.90882524267921      117.48147857726198       93.26865500401456
H          112.31026203326223      117.89474015190196       94.25326763317551
H          109.51649994082304      119.02701943429102       94.70999248715810
H          110.76002231877204      119.80445447516193       93.72898442349944
H          112.27349999245207      119.76198571393346       95.77729103480392
H          110.86816941438050      119.28027582607673       96.72560457781287
H          109.68345417260127      121.35992230786077       95.97710248749313
H          111.12453001907640      121.83402451805549       95.07702968054389
H          112.43341381144003      121.75932596992604       97.22572742130879
H          110.93736863984824      121.42014076990004       98.09316070076380
H          110.01293920931387      123.61681324820398       97.29625642558308
H          111.53244116498681      123.93215933450134       96.46399873288698
H          112.73492979308816      123.71228203142698       98.66662853245899
H          111.17132797873953      123.54056924169889       99.46641290052042
H          110.53372393942021      125.81782725259878       98.72042608930421
H          112.04913523092506      125.95273822650620       97.82723147926735
H          112.44447524843758      127.14425756242549       99.82302182514590
H          113.26022395917963      125.60261545574653      100.06196992945291
H          111.25222492100696      124.80737777693089      101.37760468714795
H          110.53610053299286      126.40557332001451      101.16325684690649
H          112.46727553014796      127.43112998930148      102.34430337376631
H          113.20040413209053      125.84161033185565      102.52347016339502
H          112.19134025347815      126.41149927895864      104.61049594923290
H          111.22094016627655      125.12056537543016      103.90094818646396
H          109.46520976461838      126.68351415827001      103.29869318560388
H          110.53154696397978      128.06042014354571      103.56519526427427
H          108.99258634225598      127.99899615223262      105.36985117122805
H          110.55746638187514      127.51498531421608      106.01894502646483
H          109.86815652653135      125.16253120151337      106.03484701236593
H          108.36896133221315      125.56120882601907      105.19175893180970
H          107.61200098786421      126.90696280196993      107.11250295271012
H          109.12263082926573      126.58355891696036      107.96428359712516
H          108.62580883920593      124.14796844858205      107.91230966353126
H          107.09439970988144      124.47542817437352      107.10325697504607
H          107.81676086058367      125.55764519650774      109.86109975394638
H          106.97482087919187      124.03659681256953      109.59060069451401
H          105.18406315156221      125.33948214949697      108.33752158560675
H          105.98992985178818      126.81853930777409      108.85328874566322
H          104.27106169761237      126.51351342319872      110.43789547947434
H          105.72275247926396      125.95624043803053      111.26802170907682
H          105.11015287416001      123.59537669261539      110.63719474723312
H          103.62620689284043      124.20457375505687      109.91042171293535
H          102.91330354345848      125.07471897920890      112.14381462306896
H          104.41795123059097      124.47997367006853      112.84493037577045
H          103.80273662273531      122.16020627511817      112.08254589528998
H          102.24395758712319      122.77809912458301      111.54649174411681
H          101.64787260811413      123.38871194698811      113.85605254337683
H          103.25971777578465      122.95377141419736      114.41824107721122
H          102.87269677132497      120.60490939078332      113.63225906778564
H          101.21971175794511      121.04286461423268      113.19564012806998
H          100.71201801989984      121.55287207103466      115.56256504004544
H          102.38581454019609      121.22507060394625      116.00923469580573
H          102.14111593662767      118.88393338154285      115.18391642856909
H          100.45015725139787      119.20092364863886      114.79654783076683
H           99.97537547563061      119.62867758788586      117.19643564515304
H          101.67608529657208      119.37873791865714      117.58555599375242
H          101.52840271801473      117.04627550169290      116.71146834191995
H           99.81987909936960      117.28800629010695      116.36061039301106
H           99.38357567010280      117.68046586918112      118.78521549935498
H          101.09709485571379      117.45112398045133      119.12754223112205
H          100.95533397829583      115.12849337616321      118.20913224914359
H           99.23550870810705      115.35661068174846      117.91846022154074
H           98.88706081016268      115.73475971430197      120.36900146534909
H          100.60871691055902      115.47334086780117      120.64091023734412
H          100.38746442182203      113.16885235077994      119.68038660062983
H           98.66051368481153      113.43204904590056      119.48034279352100
H           98.43742994100219      113.76631703244547      121.95090502110858
H          100.16509939621834      113.46837828357523      122.13429604585377
H           99.85543707765767      111.19397454383372      121.12681183259023
H           98.12488822398069      111.49393765282770      121.02121723984105
H           98.01904478622761      111.73653352183472      123.50286578142088
H           99.75138837751493      111.42418197541303      123.60044446379875
H           99.38863395490077      109.19806274443215      122.51185657653681
H           97.65272483171505      109.50836306454818      122.49584488379563
H           97.64507145252858      109.61186592698070      124.98092439716672
H           99.38136119687987      109.30895781229813      124.99897475055788
H           98.98700669862072      107.15005467815965      123.78221050310317
H           97.24979462927142      107.43750155982164      123.87545139507142
H           97.36379479534325      107.37820541689011      126.35412329829303
H           99.10625730871466      107.12970483500439      126.27577899258655
H           98.71730870681391      105.02860319679260      124.95629091278511
H           96.98250093758625      105.25509076712601      125.14181804368127
H           97.21412154461184      105.08068279829421      127.60913766189547
H           98.95800775749262      104.90152517717287      127.44178205471322
H           98.59558470296578      102.82772589870041      126.08204225757126
H           96.85781205089037      102.99730070878341      126.31523488224714
H           97.80511955696299      101.37371809861106      127.93206173237517
H           98.90949958863050      102.60494214802351      128.54585454567402
H           97.17174844911941      102.78225039232744      128.78614260453614
H          106.85461813457334      106.62333510902029       93.38193898944549
H          107.49449586794233      105.40425880615562       92.28134639478402
H          105.97768791817400      106.21925597633407       91.90073544363473
C          112.85200801460068      130.69906558586413       95.12586778599125
C          112.14981551407094      130.08069004648257       96.32782905436949
C          110.77484957902439      130.70183984773178       96.56477057101964
C          110.01428489941705      130.04705813374264       97.71976047728451
C          110.52659175377063      130.47584299756372       99.09343054291006
C          109.98223945439091      129.61485018535930      100.23275959058381
C          108.47699161393498      129.74554819600340      100.46517054989071
C          108.06058192795209      128.95465736665119      101.70253980895176
C          106.56913651886659      129.02450056211643      102.01926148976260
C          106.26188108578771      128.27621380667915      103.31540729694825
C          104.79793296800440      128.36650589465205      103.73926720982260
C          104.57597674952002      127.72215923807049      105.10655689328270
C          103.12192560974719      127.79611547237000      105.56600425255083
C          102.95505377139851      127.24621604716181      106.98137117888007
C          101.52477925947420      127.35004447144000      107.51471936494676
C          100.54220802485992      126.35413586156534      106.89525769470995
C          100.77178315531391      124.91817747967626      107.36218129252829
C           99.75826833716388      123.95402901275530      106.74780939380193
C          100.10343426044450      122.48173179567361      106.97058355327241
C          100.11766334018851      122.06670582464530      108.43976536825831
C          100.30551479134365      120.55930503989580      108.59129171494811