3795
 energy: -5103.662387535059 gnorm: 0.000905632615 xtb: 6.6.1 (8d0f1dd)
C          106.37479195860911      113.23074107031633      126.39578878600014
C          106.01862711080332      112.18340303940778      125.36516386530096
C          106.63349150631228      112.70433309899248      127.80812178700077
C          105.49116111823396      111.87650274890706      128.39709740317295
H          107.53099691764510      112.08236068299018      127.79577387287929
H          106.83081877442309      113.55969816451383      128.45792228505198
C          104.15240496825908      112.60738983653215      128.46936720574379
H          105.36421566475597      110.97333744552792      127.79907355026414
H          105.76599528265993      111.56999146408873      129.40999084335286
C          104.10905730014231      113.69480505272173      129.52337606641765
H          103.87367054331982      113.02310054365334      127.50454377486918
H          103.38535778961696      111.88482986406687      128.76139768278637
N          103.52972521277533      114.82836241935763      129.12885917103270
O          105.29636117481645      112.68998458225553      124.38929363346263
O          106.37619977008438      111.02428701006819      125.40112890990085
H          105.03540395230050      112.02459620545933      123.67698272081594
H          105.59239874109583      113.98861404575409      126.39191935431840
H          107.29323317646750      113.69581155065403      126.02415624087624
C          103.24111910153766      115.92555331602449      130.02563778765983
H          103.10001097400585      114.85918298174666      128.20241977916876
C          103.32574990629026      117.27281434927671      129.31612788948678
H          102.23188869811945      115.79639863603084      130.43994956168871
H          103.95306572696177      115.87309100512012      130.85391911032579
C          104.75465840471034      117.70815724415856      128.99662671062521
H          102.74620010080594      117.22439383111156      128.39167790711338
H          102.86329701854162      118.02220604709487      129.96083729979193
C          104.75259598723872      119.09378532181661      128.35343880027426
H          105.33673248620966      117.73550515000981      129.92006786481923
H          105.22014697638312      116.98197785962071      128.32899707680676
C          106.14740099241733      119.70004686251970      128.20593897828536
H          104.26779868573867      119.03491074523680      127.37641922948563
H          104.15068775857627      119.76187364673585      128.97384866490466
C          106.05169137797429      121.11049797258973      127.64076055472641
H          106.62994161422536      119.74873545944740      129.18383987282365
H          106.76808677733318      119.07961574854281      127.55816107147955
N          107.31972763535499      121.81072307772001      127.69898396134447
H          105.72741078381111      121.09021160665229      126.59451743710787
H          105.30152690765865      121.68108702148122      128.20431522820397
C          107.45958130507701      123.00931305370612      127.13522775378529
H          108.03533541852771      121.45267681021026      128.32587798380976
O          104.54201633649524      113.52524322186879      130.66528157447723
C          108.79232942954130      123.68985092790143      127.34486358912395
C          108.76519336630309      124.56105426107237      128.60469598049102
H          109.57754369531969      122.94298123406887      127.44045602509094
H          109.00659364217674      124.31841800654118      126.48103058453358
C          110.00351929970736      125.45687346152772      128.69873628901462
H          107.86619091778674      125.18210059515285      128.60219886109388
H          108.72100492220109      123.90745216355882      129.47820678074865
C          109.93488426459056      126.64524158445775      127.73615357684889
H          110.10026443657408      125.83670702676324      129.71827731663177
H          110.88925369192091      124.86387000233587      128.46835514467628
C          111.17987792944673      127.51310153853382      127.82762837492874
H          109.84447692691960      126.28380624046785      126.71270701124737
H          109.07093213815097      127.26546119811522      127.97968753355569
N          112.24653972785225      126.99920820584001      127.21139268663238
C          113.51301949189278      127.69515255134512      127.08482149402408
H          112.15964360898542      126.09508054130140      126.75168076262312
O          106.55420141441758      123.52643647371767      126.47709040421948
C          114.66011379641294      126.73163416964513      126.79952752901150
H          113.44745661378832      128.41414414488966      126.25771665374947
H          113.68208756805024      128.26545346237427      128.00300969177641
C          115.89936998524229      127.49541271632893      126.33716460320312
H          114.88413777011245      126.13465980508907      127.68548308435183
H          114.34352290307308      126.05426762783129      126.00711861747381
C          117.01430897527790      126.59263727423254      125.80428565187060
H          115.58929358337382      128.18680844121582      125.55077308392053
H          116.28217763804372      128.09017192856447      127.16925243665440
C          116.59889165812750      125.81636164890548      124.54674001756808
H          117.87483015467589      127.22228336584941      125.56977201950585
H          117.33114782254926      125.89534802628181      126.58106489817447
C          117.69966244412075      125.74064365638419      123.49483412071811
N          118.93505402399329      125.20645145193356      124.02887119175826
H          117.35925341531916      125.10239513119230      122.66988722441626
H          117.91608992784190      126.72968074905191      123.08273874815877
C          120.13300034142367      125.53206059824656      123.54235122491907
H          118.86572336404818      124.60458338791032      124.84245589877416
O          111.18700095209900      128.59529999043528      128.41406347637997
C          121.29742811958327      124.85835439255054      124.24274093938297
C          122.57012251557852      124.87837094833513      123.39661541849745
H          121.46146622031975      125.36505846308287      125.19559610679950
H          121.00563274440817      123.83329248074971      124.46997582400920
C          123.59827737179153      123.87065429153301      123.89654139052614
H          122.30931336178239      124.64778186641948      122.36225076689433
H          122.99852120199961      125.88134443861117      123.41589020138161
C          124.84447424188440      123.81294790638150      123.01438372825308
H          123.88966095560767      124.11974300011927      124.91776354337941
H          123.15011088892918      122.87496530108361      123.91151198881835
C          125.72551775342201      122.62529558915674      123.37582639116302
H          124.54096981554311      123.68896053625261      121.97131754317840
H          125.42671787679072      124.73131249819008      123.08655523454217
N          127.02018536207035      122.78069584570866      123.09588590612894
C          128.00794798998245      121.74658919067238      123.33948245568681
H          127.35512260100988      123.62043627444123      122.62050924831696
H          116.30351857234677      124.80099812397729      124.81254142583330
H          115.74058933513720      126.30855430082157      124.08680416400915
O          120.28318167966724      126.30142155655454      122.59107844264605
O          125.26634335041231      121.59641052081436      123.86920550659984
C          129.41922760964846      122.31516870320087      123.25213802464357
H          127.82163026432595      121.31086258982047      124.32646534147526
H          127.89347693243542      120.93998786938916      122.60442735718300
C          130.46373943710725      121.20428358416845      123.35399813279747
H          129.52068429243027      122.83622133001616      122.29962566023144
H          129.57126073613557      123.04987713166707      124.04449325339976
C          131.87748980736308      121.65745526692000      122.98112074771834
H          130.47207860480412      120.81650596370118      124.37476113236504
H          130.16873578759223      120.38534521395297      122.69488405613623
C          131.96694640641752      122.12301984323828      121.52490747121389
H          132.20170331361837      122.45658052377546      123.64912044164156
H          132.55326787057191      120.81243474815368      123.12797914143594
C          133.33281772636272      121.86890834245092      120.88814885110588
H          131.22311020799475      121.57927622474649      120.94300539854437
H          131.73633209667329      123.18663398865945      121.45076565866042
N          133.30063583087460      122.23102997305968      119.48649220064446
H          134.11745051124510      122.46246650900032      121.36477664753602
H          133.59848204375160      120.80923693576469      120.98997846848016
C          134.24840059451424      122.94575019128348      118.87194602880551
H          132.45698876863432      121.98992034383876      118.96874432982551
C          133.90894605371020      123.34600577140080      117.44579023644320
C          134.62601933647352      122.48120359225676      116.40357259909651
H          132.83133803853246      123.29000302979398      117.29441855095979
H          134.23615433168305      124.38021962791386      117.32469805777848
C          134.01473290313015      121.08737646037520      116.26437618954307
H          134.56172536783376      122.99091710062922      115.44002431019111
H          135.68173067164724      122.40363702168450      116.67234141655437
C          134.57525494727460      120.37520692412056      115.02541572308780
H          134.22191783538133      120.50280064320077      117.16295068735822
H          132.93095162223133      121.18114875738443      116.16941042009429
C          133.88487868545383      119.04489227520955      114.79540962868866
H          134.39309635707502      121.00304315308517      114.15162102207904
H          135.65054979276172      120.23499162709746      115.13650628793084
N          134.50196343236172      117.98567055910803      115.33087153205116
C          133.98252337875556      116.63352486713639      115.30368601653753
H          135.33009024355249      118.13482373832751      115.88722727614551
O          135.30891052501846      123.26516093844722      119.40701942530816
C          133.54747002536649      116.17586879728476      116.69722284571675
H          133.12851782664865      116.63010380614412      114.62370761999348
H          134.75824623992546      115.97078687700292      114.91123776054641
C          132.29770983264720      116.92534802637040      117.15204550882764
H          133.35008217341095      115.10464685190341      116.67208538497880
H          134.36329647755977      116.35083573858164      117.40217980352243
C          132.00604310913073      116.74942742640910      118.64111288386140
H          132.42932956231166      117.98653762621647      116.93509302934812
H          131.44456551309136      116.57457405580116      116.56799319607677
C          130.83815148600172      117.62611808632197      119.09551271086232
H          131.77551603152267      115.70203504550588      118.84208863845215
H          132.89276831636244      117.00780832360110      119.22402417478867
C          131.25105790524950      119.09031500333924      119.24015150818913
H          130.02621478740230      117.54929545349029      118.36994498053542
H          130.45824846279123      117.28112345174461      120.05854374215521
N          130.08864597960093      119.93698488880005      119.39246201273049
H          131.91215394395834      119.19808089485129      120.10744583311211
H          131.78573170994684      119.43931951960772      118.35360036868529
O          132.84086363322780      118.95459867167250      114.15588387371422
C          129.97800963597362      121.12892990976762      118.80050932862899
H          129.41388164874510      119.63426709524418      120.09663313395279
C          128.65071879621036      121.82611647300372      119.02762743925156
C          128.58502300961874      123.16693892239441      118.30195987574021
H          127.86109409219046      121.16941350914294      118.65826980651737
H          128.50889023155190      121.95520786948683      120.10183370087297
C          127.18713051447349      123.78171979670539      118.29211863920770
H          129.29505758012101      123.85814865502235      118.75966770346061
H          128.90814681018884      123.01468787696318      117.27007593080315
C          126.70223226779314      124.24511556658400      119.66872508936544
H          127.19037324955242      124.63552393113962      117.61648880776474
H          126.47610523277748      123.05196196642105      117.90023629210152
C          127.69475046841299      125.15427170029535      120.36861717490919
H          125.76486228641198      124.79272034660369      119.54931243525633
H          126.51883499047700      123.39103725479333      120.32231214656129
N          128.15258737347608      126.17772117121737      119.64853574038492
O          130.87316318976082      121.60827176752308      118.10077032489032
C          129.20731864540909      127.05075756816960      120.11740647575014
H          127.82760378502525      126.32137057203109      118.69918047780158
C          129.06127385775531      128.46490687562616      119.57048510478100
H          129.17373598790041      127.04974348912418      121.21074535841439
H          130.17903811059961      126.64142751775823      119.80957048949399
C          127.77755147998815      129.14578101827789      120.04014349633049
H          129.92506368997223      129.04442940123880      119.89983676243739
H          129.07607473789690      128.42470557362668      118.47972229494628
C          127.78944385814884      130.64121873436991      119.72563040571139
H          126.92995957121346      128.66068960676699      119.55545416980172
H          127.66961359949323      129.00975428584331      121.11860260421093
C          126.49260587043126      131.34543834786484      120.12601477978858
H          128.61949393844560      131.10054267501241      120.26531231205142
H          127.96676649704202      130.79143128136735      118.65911748868032
C          125.35545002663811      131.05315322340186      119.15046878412321
H          126.19128335679301      131.02075758463488      121.12444395444632
H          126.65611411885283      132.42372009600930      120.16250519703898
N          124.10135669963232      131.57254868334124      119.64822444127543
H          125.54556331568908      131.51886073976542      118.18108124477263
H          125.26271567880846      129.97177957406819      119.00651844248857
C          123.28309221482623      132.33989576277060      118.93177259789363
H          123.85116587313146      131.28546689917766      120.59423675300550
O          128.04166469222326      124.95252054124391      121.53574013146522
C          122.02389353717486      132.79581850864557      119.64017696351772
C          120.82090617922083      132.03517344803416      119.07486950483647
H          122.11149073236567      132.62702629320898      120.71303309969028
H          121.89404803601454      133.86463386450023      119.45580085331399
C          119.48874519798616      132.58762636815879      119.57566195289530
H          120.84937083308407      132.09369580259391      117.98461656908029
H          120.90163226098791      130.98507527624383      119.35627742671807
C          118.31585248796695      131.73883680299258      119.06771095900928
H          119.48693310662459      132.61091961419254      120.66759699306463
H          119.36276630779065      133.61467756999909      119.22692929382899
C          118.25682655144185      130.41096053402927      119.79017231689959
H          117.37252363363520      132.26513507152052      119.22162388110158
H          118.44552770155117      131.55833536134938      118.00169640531225
N          117.69964750086152      130.47053666702857      121.00123536015667
C          117.59284008286662      129.33249425649191      121.89528827728124
H          117.24585071062555      131.32477005430786      121.28696881251325
O          123.51096529540683      132.64343506810292      117.75865139510647
C          117.15637761764172      129.77584460535897      123.28764814546317
H          116.85193363917703      128.62759876292787      121.50077515216748
H          118.56002535194182      128.82388084541526      121.90420215384867
C          118.08946565017374      130.78484237503710      123.96966003185666
H          116.15810273508197      130.20899958339183      123.20447893581010
H          117.05537471027384      128.89343914067996      123.91691329393507
C          119.10445345797925      130.15844444599563      124.92980831017580
H          118.61169648927415      131.38114530236115      123.22051840274449
H          117.48105992806281      131.47461779922210      124.55766327997354
C          120.07228901609037      129.15986999678668      124.29672907446002
H          119.68113430943311      130.96332351746486      125.39169995774017
H          118.55677278447331      129.65015622264744      125.72597771413605
C          120.94673127294703      129.78935340723896      123.22130237787397
H          120.71565724599999      128.75140618707610      125.07908189527336
H          119.51846418046723      128.32911774060287      123.86186879505209
N          121.79896052028791      128.79893971052127      122.59476290502820
H          120.32648148853403      130.25854704186702      122.44929884719306
H          121.59085407725851      130.56469510024425      123.64671537713913
C          122.95036211743007      129.14220702498102      122.02252218301076
H          121.41896516602607      127.85823284428427      122.50704283601236
O          118.70011917053817      129.36146936603981      119.32124484578036
C          123.70223390408526      128.03518090563261      121.30929259606872
C          122.88751802504983      127.42330263492667      120.16374121943224
H          124.62605846697494      128.46902363348829      120.92252665002813
H          123.96914058184352      127.26170762398148      122.03028908131617
C          122.23431887395934      128.50596582325514      119.29836196980061
H          123.55885564067862      126.81849088197568      119.55038548540972
H          122.11830177189432      126.76348223521941      120.56692509567419
C          122.02950666788792      128.07273294831469      117.84601050242742
H          121.27451599759647      128.78379616671526      119.73684183475645
H          122.86505351401119      129.39623076401423      119.29341918123262
C          121.25162759578640      126.78021744295440      117.72500999659931
H          121.49198634343860      128.85725983546607      117.31139427652865
H          122.99477869057540      127.91941680234183      117.36067283357235
N          120.00631741876320      126.81578053938370      118.19542831676837
O          123.38636590372521      130.29706600548479      122.06368721340183
C          119.12055676513675      125.67165303799202      118.17546606697313
H          119.64928809082626      127.66516054572114      118.61357552801712
C          118.28476903656788      125.60983470494747      119.44833220925611
H          118.46520649716199      125.74144207635153      117.30116767279449
H          119.73527810065968      124.77484512702851      118.07106614784263
C          117.40518131706534      124.35971524763640      119.50913504277788
H          118.94675120619337      125.63168352808930      120.31689803154313
H          117.65990737255365      126.50321966242954      119.49690247531525
C          116.55958838273837      124.14963800377711      118.25003496610665
H          118.03987807252781      123.48818858530552      119.66855251101975
H          116.74204320583516      124.45395890890585      120.37202769835874
C          115.31734485488579      123.29254345674654      118.49836506631549
H          116.22154757259153      125.11884447615539      117.87864679005081
H          117.16450363995692      123.68294795899862      117.47295748866252
C          115.60805745136130      121.93257131820670      119.11938711099081
H          114.64668779869326      123.82226204314343      119.17511827803922
H          114.79984194502018      123.14572124292241      117.54848151469628
N          116.39106390893943      121.09763065018264      118.23430839314636
H          116.14472991400406      122.03995184284490      120.06487847704902
H          114.66109967358709      121.42304209580018      119.34325749938463
C          117.00188279671889      119.98389534474155      118.63842207131908
H          116.41900257993625      121.35318755481825      117.25540367060481
O          121.74546781787002      125.78043994160211      117.20579905141149
C          117.73758217696353      119.23300861752415      117.54641456643382
C          119.22952170525225      119.56689842582487      117.62412031625442
H          117.59521053521131      118.16387848176559      117.71197628455114
H          117.33905321125849      119.50918268220964      116.57311846874669
C          120.09136932127019      118.68725721494201      116.72172198735618
H          119.37660089249057      120.61436938437963      117.35544563150680
H          119.55852213087212      119.43264495480244      118.65740613433502
C          119.92662370740267      118.98284335479160      115.22649746451353
H          121.13711859602998      118.85677034056431      116.98564762662552
H          119.85929651321605      117.63542508870010      116.90263028840133
C          120.97694967481162      118.18578433262721      114.48061572836535
H          118.93368283677711      118.70024231831168      114.88315972376289
H          120.08438327617316      120.04520461145057      115.05396086078737
N          122.19454872509316      118.71673927351993      114.55595558969522
C          123.41552230674846      118.04341576099141      114.17559644078027
H          122.30891525618964      119.61993210678064      115.01180592188757
O          117.01539615383395      119.60970445566795      119.81107775719339
C          124.57152948138980      118.53463469271844      115.04155530765048
H          123.26724286985615      116.96766384118274      114.30680209766237
H          123.63475113221084      118.22872031860133      113.11703288125497
C          124.44534914850894      118.10168015259895      116.50096763825425
H          125.50116276747053      118.14770452183136      114.62727070293481
H          124.60434281192875      119.62391989049949      114.99535434404389
C          125.53504324695457      118.72783131956396      117.37066575882035
H          123.46972761410846      118.40256352467226      116.88368213905609
H          124.50985203127593      117.01352574623829      116.56392865087113
C          125.44856341021226      118.23428184976746      118.81309282561310
H          126.51474488871611      118.47307596391926      116.96302223999714
H          125.43235170847210      119.81372198219570      117.34484455484387
C          126.56876307133942      118.78021534250327      119.68971987248871
H          124.48823274656513      118.51865338882925      119.24158782911412
H          125.51232903456304      117.14606495556859      118.82105119719077
N          126.67902363035896      118.00297578858556      120.90923390939827
H          127.52667013656685      118.71929530849404      119.16106709878513
H          126.38612785539974      119.83114984692168      119.94128706505923
C          127.72410869162611      118.07760886863029      121.72750365356428
H          125.92116291568217      117.36287045270062      121.12856688723889
O          120.72886769583772      117.12608166829662      113.89917605311283
C          127.72554218531633      117.06937170301273      122.85980036726779
C          128.04857515064290      115.68614018682264      122.28586535050712
H          128.47910592717406      117.36225282704291      123.59150501416548
H          126.74782461827412      117.04473954742315      123.34044347337078
C          128.17071101319453      114.60211056961063      123.35364658858961
H          127.25448459645668      115.40648695813888      121.59183039073375
H          128.98808808420299      115.74277890583788      121.73037756413636
C          128.46484684582822      113.25105670055619      122.70148941612345
H          128.97208209517544      114.85023682277482      124.05264491166569
H          127.24388992229503      114.53197442143613      123.92405000222635
C          128.45231049630806      112.09372084754821      123.67816048748533
H          127.69417481587001      113.04203728245200      121.95346362113121
H          129.42696671957742      113.27114442913873      122.19266776225567
N          129.43309168404585      111.20557144348645      123.49584374471894
O          128.65304585283280      118.87042696930327      121.55336919149805
C          129.59103531176791      110.02924109331444      124.32370248240454
H          130.03462914817845      111.29433973698269      122.68638623681994
C          131.06495987910080      109.71504405724832      124.56802715286885
H          129.08808060388310      110.24326287461079      125.27100791697232
H          129.08779342429546      109.17302298463100      123.86003463052572
C          131.78169421277880      109.13888277251797      123.34558566807269
H          131.56449556675099      110.63360837377324      124.88098125166469
H          131.13195861645025      108.99994200139209      125.38958637418672
C          131.31817828787166      107.72242760278780      123.00605061021446
H          131.62360483897803      109.79050158222680      122.48395558070875
H          132.85140221955714      109.12328299191329      123.55815158399345
C          132.14529345976189      107.07675850410983      121.89466812730383
H          131.37312408226487      107.09730404296810      123.90038079215120
H          130.27428359917127      107.75051812676041      122.68700046229988
C          133.53625746345230      106.61917506935458      122.35483541599304
H          131.60522335426649      106.20538532445234      121.51204811494118
H          132.25445618703856      107.78808152124417      121.07221759300462
N          134.31181220286632      105.93154432128087      121.33291882430193
H          134.12536109437207      107.47812758696318      122.68437608588016
H          133.43128777721088      105.93672103435620      123.20304775234072
H          134.43307599540901      106.54166167275221      120.53148614049985
H          133.80291874291842      105.11382025912194      121.01373775728240
O          127.59423261153698      111.96456009145884      124.55275343844995
C          125.43107720154636      115.74009235203785      101.87789816897079
C          125.17072113080150      116.39109772556048      100.54985188224325
C          124.48269327408079      114.55766276758970      102.12253658836173
C          124.93570606296841      113.71066935447963      103.30969318693498
H          123.47320959915234      114.92887476078492      102.30370895509229
H          124.46977689909112      113.93082313847091      101.22985373916606
C          124.77369211541608      114.42473238695298      104.65695292012818
H          124.35618057938420      112.78647866289734      103.33528633960593
H          125.98495313221891      113.43886471385431      103.17428050998022
C          125.48016941825679      113.61268446904529      105.72190384228321
H          125.21790847451869      115.41743260777446      104.62063310294931
H          123.71487270453717      114.51485371711523      104.90460916700420
N          126.68932298913734      114.07416546543152      106.05088997019357
O          125.42753201697964      115.59052824674708       99.52717002212944
O          124.77244940743145      117.52652498901847      100.39995571339605
H          125.25649003344665      116.00987722170629       98.66484879120821
H          125.32789992975097      116.48631118558149      102.66459157355550
H          126.45761886996685      115.36893559545366      101.86926732353942
C          127.52988197601105      113.46023612377724      107.05351117516996
H          127.00893243264068      114.96051301716595      105.67105024348230
C          127.86750096058856      114.45832294683748      108.15615497263937
H          126.98782731334244      112.60000995449649      107.45345207674291
H          128.45199541245978      113.10335410808158      106.58054089598477
C          128.82466181131187      113.88138306537806      109.19496533015258
H          128.32132584381117      115.33356062815569      107.68864676720194
H          126.94574160649250      114.78837541701886      108.63945499458362
C          129.33436243568264      114.97693744481069      110.12728883439542
H          128.31338139373125      113.10683345220976      109.77012566145150
H          129.67059679312979      113.41062606651354      108.68941685805089
C          130.20144995393446      114.43200906179534      111.25720002075508
H          129.92783523848999      115.68470022076220      109.54470053754379
H          128.48238015948010      115.51847409621179      110.54243402954313
C          130.75848379964015      115.56050819524364      112.12958744357373
H          129.61788653064588      113.74968557606603      111.87712399930746
H          131.04032836097443      113.87283460897366      110.84033185663435
N          129.72324467986743      116.32953683827871      112.78398984613595
H          131.38837249462532      115.13727771988729      112.91646246671064
H          131.35685462206374      116.24089234474886      111.51987361810622