3258
 energy: -3427.533288495464 gnorm: 0.000815045475 xtb: 6.6.1 (8d0f1dd)
C          108.79531205571746      125.11717296197567      114.63506490365182
C          109.30270131903821      124.31016598902949      113.44662643392942
C          110.81189289087746      124.09173643880958      113.50427607345563
C          111.32331685220636      123.28770954885807      112.31169165639601
C          112.83676900866232      123.09314814779231      112.35285034535868
C          113.34345892897585      122.26409972572583      111.17536992453533
C          114.86504511800452      122.14503070095108      111.16657178969920
C          115.36993138743357      121.27050593674927      110.02184462028832
C          116.89368957097305      121.25195833529177      109.94384502212402
C          117.40742893941605      120.38333328588685      108.79900649388091
C          118.92431276086774      120.46390931401370      108.65082258097722
C          119.42986372404042      119.64573647393121      107.46568938790296
C          120.94659054344839      119.73325983232560      107.31641678093112
C          121.47144814852822      119.06472509139985      106.04353284295162
C          121.14617057149690      117.57620170861813      105.91979422036219
C          121.76518913918912      116.71861316479513      107.02059376975789
C          121.33856773582666      115.25990824878056      106.89570046953249
C          121.87870720423862      114.38563687084819      108.02210670256193
C          121.30708470503983      112.97174971346982      107.95844546965306
C          121.75231242268724      112.13164484123659      109.15007052392694
C          121.22422371673420      110.69635139436851      109.13497552387194
C          119.70212354776982      110.56883502828609      109.05192856282555
C          118.95675740183376      111.24417319868046      110.20023422840683
C          117.44580487676035      111.08018863192466      110.05895344596837
C          116.66688136126739      111.84872370272493      111.12419044523133
C          115.16634566314232      111.81235044883897      110.85166414689215
C          114.34581520551976      112.62315301568886      111.85108333354826
C          112.87111319094109      112.65421853907652      111.46048253741540
C          112.01546769033392      113.50369146527598      112.39444915903339
C          110.57732860704375      113.61227440049655      111.89530312127404
C          109.69144213386511      114.42446633587822      112.83415243471286
C          108.29368404691149      114.64159979808426      112.26256870176721
C          107.38240271441923      115.37957441811507      113.23851242680195
C          106.02320155203047      115.70104062337231      112.62644789879600
C          105.07246783403171      116.34817537378642      113.62948245108532
C          103.75470490974872      116.75132538486672      112.97685275004336
C          102.76195724865629      117.37186309895496      113.95665938497636
C          101.48606083570142      117.81018324507870      113.24269907695374
C          100.53985229209452      118.61244647406582      114.13263408440901
C           99.29581765988294      119.10206576267501      113.38726112155737
C           99.60215787913758      120.20060447850831      112.37182702590459
C           98.36366652004084      120.63263054524610      111.58923277558037
C           98.66287813247077      121.74207672331768      110.57731113034674
C           99.40851435093646      121.22830055587396      109.34748661273031
C           99.89922962851763      122.32928114665997      108.40777761221133
C          100.92726813088005      123.28703727821889      109.01708913895953
C          102.12925836455202      122.62622756785980      109.69290926921930
C          102.97822432993949      121.78076327447002      108.74898977930344
C          104.16401618358823      121.13252459009821      109.46062214217221
C          105.00702347139527      120.29907540945753      108.49979375262448
C          106.14942424674071      119.55767810478416      109.18990322099432
C          106.92252769332011      118.69564920333904      108.19607807692705
C          108.09198095391413      117.94199573085247      108.82423955198399
C          108.76384968053749      117.02949745313651      107.80181311880750
C          109.98440116532217      116.29425478820110      108.34819024373050
C          110.53311648768324      115.30526979807610      107.32289928900202
C          111.77598057116099      114.56273389549908      107.80481244522969
C          112.20423725481280      113.48466573623014      106.81260558655222
C          113.46067743317370      112.73638528410913      107.24935673006287
C          113.84393890683511      111.64217353099475      106.25629715597584
C          115.18693253040833      110.98944682540971      106.57699616465005
C          115.61276332211983      110.00596123075061      105.48648478445190
C          117.08116665607123      109.58385756608494      105.59078295995478
C          117.34777387341332      108.36918848696968      106.48067591108517
C          117.10118449223667      107.04445017969908      105.75961472225340
C          117.57412648928710      105.85654081238948      106.59299865289167
C          117.40801930748391      104.50557000497494      105.89773498500598
C          115.96297173244658      104.05411979459979      105.67427360631532
C          115.16193492264892      103.84900830048522      106.96655088824882
C          114.23380076538400      105.01283400386329      107.31734198457572
C          113.00426077841249      105.11103881605575      106.41781618872368
C          112.16086157042790      106.33545926898125      106.76174378927468
C          110.90227060600205      106.44949070156420      105.90647303152811
C          110.07513358230564      107.67435459643130      106.28521943894926
C          108.82107366924200      107.83296387121601      105.43068737310982
C          108.01210200934145      109.06188475559135      105.83937336393095
C          106.80688751021377      109.29600641431708      104.93297576827275
C          105.94170702080707      110.46542217749658      105.39999111307519
C          104.84956352128209      110.79758196130017      104.38578190685902
C          103.97373081040537      111.98481277839866      104.78808298951193
C          102.92687523264090      111.63861905311636      105.84393841387714
C          101.96132619322081      112.79867906499584      106.07316928079972
C          100.79770814559842      112.45569071018392      107.00348501881676
C          101.23355293901827      112.13399719265193      108.43156989489877
C          100.05296432208765      112.11791604507548      109.39904193799111
C          100.46749445973951      112.02013174891329      110.86732262466256
C          101.16404897653931      113.28125393277226      111.37479872023128
C          101.40274495443370      113.27979402455313      112.88441643203787
C          102.25618692455011      112.11892920477852      113.39154698282651
C          103.64743738840856      112.02239614828474      112.76976142560501
C          104.40274107946050      110.82486219061201      113.33891805191597
C          105.77615276936152      110.59900863279933      112.71198435374720
C          106.39099105168397      109.30683399439339      113.24116653791658
C          107.78634535411202      109.00904012172204      112.69955742754480
C          108.30117500646197      107.68838364731209      113.26515435323219
C          109.70175395002745      107.31540464719156      112.79085282770802
C          110.10027398815558      105.89214291098493      113.18465298123797
C          110.17215592712323      105.66717203738568      114.69227993720320
C          110.50777458988918      104.22023376803469      115.04756705564533
C          110.42418388402420      103.98249087160929      116.55195010958813
C          110.68020186963525      102.53378595339805      116.95173904310742
C          110.58978119392619      102.35778736335803      118.46537397453625
C          110.83383082217905      100.91688860252995      118.89826619823882
C          110.79106524713575      100.73697051798337      120.41385096448460
C          111.09634702067865       99.29760009106313      120.81735851172739
C          111.07077294045676       99.09551452710487      122.32940878987354
C          111.27542528564929       97.63594053669185      122.74117195913126
C          112.60383160464504       97.01783002582928      122.30014933878321
C          113.82732187578588       97.70483693273603      122.89955335880214
C          115.13451486268239       97.05264012313984      122.45364772375146
C          116.34450715253715       97.73270747502654      123.09100058046596
C          117.66870762768541       97.26490329809245      122.48822711821610
C          118.88843185382851       97.73331292574701      123.28405010586303
C          119.02798268141244       99.25279176732415      123.33453333429132
C          120.23510280815407       99.69547953060085      124.15662776601155
C          120.34852582807832      101.21557067269400      124.27559362559374
C          119.26683689238624      101.84649207285364      125.15013843743151
C          119.50538285950795      103.34092843319195      125.35154998680319
C          118.41245146089112      103.99734089627856      126.19100582265023
C          118.67437234557245      105.48401384193764      126.39837127044045
H          117.44776229953455      103.86336865744533      125.69517483248370
H          118.35427557644506      103.50010165975299      127.16271397312816
H          120.47123101440383      103.48935313510508      125.84197107898311
H          119.55203317060213      103.83235253533624      124.37755013805977
H          118.28683336329004      101.70448225850971      124.69033110791889
H          119.25065814544253      101.34874176218885      126.12361246549881
H          121.32429416967037      101.46275454589254      124.70135973366159
H          120.30371062524401      101.65528456235545      123.27833062533045
H          120.17203984761164       99.25945645795188      125.15753932385805
H          121.14375828104667       99.30979368593879      123.68746953858928
H          119.12649338713943       99.64074295774658      122.31845668589801
H          118.12591029625688       99.68007252841767      123.77149803994351
H          118.81644529002332       97.34656795303249      124.30439872763407
H          119.78951663743069       97.30630211101847      122.83555379039566
H          117.67535993189243       96.17237640665753      122.45141143043908
H          117.74445101654334       97.62832849081650      121.46017323989298
H          116.24506941147838       98.81211966671633      122.95941703210525
H          116.34473805112073       97.53074992083313      124.16532423920958
H          115.12772436521583       95.99286252642442      122.72016970323246
H          115.21357893952042       97.11610120274734      121.36577611175549
H          113.84363341376455       98.75386874620779      122.59824132842510
H          113.76083816775321       97.67472733249450      123.99054534251640
H          112.60745428490044       95.96789925849038      122.60312439321953
H          112.67709555372164       97.03957068612178      121.21178469197982
H          111.20145471721912       97.56768384113037      123.83018872376675
H          110.46210215824544       97.03976601203442      122.31903856716959
H          111.83401944417616       99.72276068825799      122.79454841000414
H          110.10266818181356       99.42571486231324      122.71620532137803
H          110.36518658700589       98.63081764668379      120.35516727912031
H          112.08048758293418       99.02917992141901      120.43194351789978
H          111.51881819345056      101.40572158665721      120.88109016053416
H          109.80328298417966      101.01692326066271      120.79029943640650
H          110.08668626606537      100.26822788142879      118.43417624807202
H          111.81372976978086      100.59992908228274      118.53292804252195
H          111.32778148701041      103.00758523478773      118.94523790317521
H          109.60196086818219      102.67619231935180      118.80343078737468
H          109.95338887568347      101.87872408150126      116.46409680913058
H          111.67338302876506      102.23226373554674      116.60890322004340
H          111.15256329729046      104.61853709757978      117.05591154991957
H          109.43249019499882      104.27747572293970      116.90722178233226
H          109.80964239750310      103.55247986422987      114.53547667160196
H          111.51132796540476      103.97271166253826      114.69354700488843
H          110.92314231289343      106.33441578155347      115.12523111905050
H          109.20978211563258      105.91543812217253      115.14280728247155
H          109.37518287539618      105.19261232396053      112.76176888001075
H          111.07336478783024      105.66173947125014      112.74192327272468
H          109.73660767911571      107.39577356988465      111.70296038230320
H          110.42737058984289      108.02513514379532      113.19466818959711
H          108.29194391272621      107.75306945834956      114.35562361689173
H          107.60795778420929      106.89373067419332      112.97515645929109
H          107.75342320246250      108.95475140573485      111.60924359167687
H          108.46836277037511      109.81752575075612      112.97343415206333
H          106.43739591902457      109.36022087336637      114.33224325446676
H          105.72806262914452      108.47471347470150      112.98739502326548
H          105.68287610595397      110.53953929834012      111.62423990683840
H          106.43059271425486      111.44354677197705      112.94235594868515
H          104.52288478351845      110.95767305503995      114.41554583373829
H          103.79921321878956      109.92515616547210      113.19013740829665
H          103.56683801484698      111.90970234013932      111.68648777420285
H          104.20376647385788      112.94172409363740      112.97000592566467
H          102.36711131632045      112.22149265845916      114.47363274764953
H          101.72288412540429      111.18449060519777      113.21139980451798
H          101.88066254227051      114.22221978092769      113.16501409204646
H          100.43599120387583      113.24224828185160      113.39519373589481
H          102.11904030900234      113.40424759329811      110.86468234905226
H          100.54818304981440      114.14979230338547      111.12646006359715
H           99.57357868994832      111.84313301588801      111.47250861286186
H          101.12664350455934      111.16089627475137      110.99033462252592
H           99.46325661341973      113.02734019336989      109.25646875209303
H           99.40759049703220      111.27109874182474      109.15157671618205
H          101.73580984345058      111.16475842186979      108.45917392036606
H          101.95142134507360      112.88786782999382      108.75451354479576
H          100.11846250709479      113.31293866498312      107.02948431301341
H          100.24005454512888      111.60972730850983      106.59354911293640
H          102.51054276725827      113.65194457891968      106.48027997989867
H          101.55184216052712      113.10856845064420      105.10640749466572
H          102.36065371929161      110.76355349977089      105.51606815382861
H          103.42444254796290      111.38134035569902      106.77996582444402
H          104.60597983849905      112.79610444762331      105.15855647726363
H          103.45694920395677      112.35630342972323      103.89808220024236
H          105.32481172572408      111.02089903560268      103.42708941938531
H          104.21546195301025      109.92030982692798      104.23654079834373
H          105.49060810206333      110.21856549453162      106.36290666408577
H          106.57427141549886      111.34429604026649      105.54837729764074
H          107.15690340854076      109.49158879054207      103.91511861261996
H          106.19792002044500      108.38966102620635      104.89393523159062
H          107.67257165004182      108.94094258639826      106.87040177947272
H          108.65786562674042      109.94214335704412      105.80833528215014
H          109.10859270572139      107.91815387095322      104.37965083920975
H          108.19765032030162      106.93880828617063      105.52605535710522
H          109.78759591050823      107.60324440897899      107.33634033067497
H          110.69327880127948      108.56869476917996      106.17316850725933
H          111.18425258430634      106.51547118417984      104.85316746973022
H          110.29745662706848      105.54686042178264      106.02720992129666
H          111.87614691699976      106.28847472095363      107.81519565424833
H          112.76729346497584      107.23602554903388      106.62528576995312
H          113.30864962188323      105.16874256049553      105.36949085402699
H          112.39712462495015      104.20950399341575      106.53294356760719
H          113.89511428678667      104.89096918310800      108.34846285184294
H          114.78673962023966      105.95115660448931      107.25940519812190
H          114.55546681267315      102.94420738740956      106.87866662393682
H          115.85569399730711      103.68371669052286      107.79433757995875
H          115.45351587901084      104.77833089849352      105.03866696763578
H          115.99607820019695      103.11210534361928      105.12002275401031
H          117.91263122756762      104.54616292837107      104.92732279845779
H          117.91835564486108      103.74566713092949      106.49652908021355
H          118.63628648082886      105.99643902923981      106.81700445975694
H          117.04714857489084      105.84568177637065      107.54817429754706
H          116.03983098355808      106.94579604837091      105.52763649452424
H          117.64421278909062      107.04576853763908      104.81010472284061
H          118.39345101384396      108.39446965816632      106.79969632682038
H          116.73205722815014      108.42488881422622      107.38115692813291
H          117.46088255157005      109.35619806492866      104.59096959237958
H          117.65630798395208      110.43304387306227      105.96425955404884
H          114.96690304724579      109.12650546924547      105.50721401829604
H          115.46012708453904      110.49414211618448      104.51980145967670
H          115.94377488262907      111.77520204584417      106.65706300384063
H          115.13096558919970      110.48217244811153      107.54266849745400
H          113.06211023638646      110.87954476551269      106.23893341598638
H          113.89582458873558      112.08033945355281      105.25540707878942
H          114.28780552326430      113.44619846113252      107.34219473993055
H          113.29137492356406      112.28721996843589      108.23052101191793
H          111.38755724614536      112.76945081313525      106.69065419485446
H          112.38283176370557      113.94780632029801      105.83829553361136
H          112.59354325766184      115.27338854885690      107.95175223096489
H          111.56350968117555      114.09662064292753      108.77044610806159
H          109.75509232002415      114.57654059185577      107.08337404072175
H          110.77058016645412      115.84230870227391      106.40076166070789
H          110.75935379615778      117.01642217002926      108.61696730153197
H          109.70495999066802      115.75462162711051      109.25769951774751
H          108.03539970847859      116.29515035193694      107.44969871868939
H          109.06425661258822      117.62644628025343      106.93650524441669
H          108.82064820937245      118.65444676977091      109.21909479050090
H          107.72886942349948      117.34207727658024      109.66391147972477
H          106.23671061633560      117.97486486996804      107.74398525821039
H          107.29769312386561      119.33188802476002      107.38990449245864
H          106.82585508406824      120.27524619162674      109.66167503257304
H          105.74200399119322      118.92240602586223      109.98184344060300
H          104.36262329600676      119.56996212090193      108.00227075405998
H          105.41525892505649      120.95075246569175      107.72301917946446
H          104.78802907010936      121.90496337400154      109.91903637345138
H          103.79249197522543      120.49312894729165      110.26698687582063
H          102.36219342457824      120.99504228038538      108.30829678643518
H          103.34484902651346      122.40796017877248      107.93265186004916
H          102.75444961851937      123.42023248840549      110.11182779665840
H          101.79152687092144      122.01234004535473      110.52989520396592
H          101.29139452200201      123.94337323645027      108.22167050146687
H          100.42912765138813      123.92070205393397      109.75190639613758
H          100.33020251537138      121.85491205006929      107.52327416188830
H           99.04251041890063      122.92110223578781      108.07221679149890
H          100.26379957973693      120.63187881400586      109.66371560025121
H           98.74044870491088      120.56983689927006      108.78456526081926
H           97.72456576440688      122.19986944781029      110.25082811250245
H           99.25088148230869      122.51674511925567      111.07312010382354
H           97.94306936322562      119.76807044918522      111.06851834225830
H           97.60766275755221      120.98500419476100      112.29607129121062
H          100.01739670082141      121.06738607952398      112.89452699249630
H          100.35825161885812      119.84286601107581      111.67321094057947
H           98.82804443068852      118.25819841647969      112.87461947553881
H           98.57466097805207      119.48515303226705      114.11350338788539
H          100.22777777663823      117.98954382230563      114.97575071322512
H          101.07430869540278      119.47441620733966      114.54186121781491
H          101.77069356377173      118.41763406384584      112.38164690652553
H          100.96227930524627      116.92614322045239      112.86756235041166
H          102.51953078297851      116.64897227953303      114.73983008450082
H          103.22015516565081      118.23737847983203      114.43997223355707
H          103.95948502215019      117.46786963723133      112.17677121549087
H          103.30015487586074      115.87023539655485      112.51570612151471
H          104.87797155810762      115.64909902193655      114.44659843126504
H          105.54799640330958      117.23141916012617      114.06095744543457
H          106.16094898146133      116.37309541986438      111.77491342602245
H          105.57275819790389      114.78137296860184      112.24330945761876
H          107.24142813678895      114.76731488646834      114.13242161494384
H          107.86366563126516      116.30942399981697      113.54952685707374
H          108.36946392950389      115.21644729758394      111.33517598065657
H          107.84861125639688      113.67559703759657      112.00933331250688
H          109.61410946947683      113.90970338242056      113.79423275636424
H          110.15556087845579      115.39630788315976      113.01685295192652
H          110.57866413098287      114.08506144641510      110.90907018097050
H          110.15678031840582      112.61061404675220      111.77522175386656
H          112.02206397475840      113.06685504091764      113.39483156870146
H          112.44401537754126      114.50585680195860      112.46575413350462
H          112.78900098060340      113.05458012122133      110.44620948749650
H          112.47929250280673      111.63463639190954      111.44528740460589
H          114.45343851701537      112.19575894722665      112.84954226840793
H          114.72688177630974      113.64591342472707      111.88283580169555
H          114.98731684022462      112.20354386846546      109.84670254933266
H          114.82352878276571      110.77457367341523      110.86395482887757
H          116.87545608649076      111.42830919515710      112.10985170353813
H          117.00335577264778      112.88822788615866      111.12847491993105
H          117.14347051332963      111.44027778947518      109.07167557241688
H          117.18751229619245      110.01893486755316      110.10827593304033
H          119.28765967469202      110.82018217516561      111.15089532790077
H          119.19035851245366      112.31076974733641      110.21255058035803
H          119.35119554370259      110.98211908569908      108.10344092707510
H          119.44622077983993      109.50543712635256      109.04653894916451
H          121.66171311153596      110.17337733600320      108.28043816171426
H          121.57162017574365      110.19284887423728      110.04102850166058
H          122.84590973635862      112.09664392482634      109.16593485460193
H          121.43599903253244      112.63044197257683      110.06862992449136
H          120.21817636617038      113.04271032393393      107.94599744046309
H          121.61866236410975      112.48800734945519      107.02959111168934
H          122.96976824427141      114.34849682372435      107.97122902099090
H          121.61101820242654      114.83472442906864      108.98295804645883
H          120.24693663333831      115.21143580845272      106.90908499671733
H          121.67693242268616      114.86473923041164      105.93467396071152
H          122.85472820812876      116.79259267294628      106.97267933386378
H          121.45243629624233      117.09120322175615      107.99783627616084
H          120.06281036576348      117.44219072711218      105.92554777674403
H          121.50997731841724      117.22381209489936      104.95066024565828
H          121.04600219279558      119.58110730009214      105.17901046180502
H          122.55632604082406      119.19461949438090      106.00372048620028
H          121.23650963553766      120.78749213010528      107.28943585330072
H          121.42526605907010      119.29319500247763      108.19358900632074
H          119.12991835693488      118.60610216790731      107.60486566202876
H          118.96200091138425      120.01206419297387      106.54912838974882
H          119.21665900649624      121.50921487699391      108.51885105264729
H          119.40083447143266      120.10579867589419      109.56751245935398
H          117.11028587532965      119.34579327883807      108.96575185127227
H          116.94519203167258      120.71261513951600      107.86524997547261
H          117.25816594793361      122.27440815357770      109.80907026432146
H          117.29876366018537      120.88286002352015      110.88935174817490
H          115.00019932033013      120.25203998147151      110.15153420647930
H          114.96821353789139      121.64942944245567      109.07850819301639
H          115.30433309312048      123.14328979194279      111.07880477472291
H          115.20244901480869      121.72400846343407      112.11696788998506
H          112.90402690614836      121.26630398604198      111.22011281855120
H          113.01326152005142      122.72775770534193      110.24262492188630
H          113.32743137073662      124.07113431146819      112.34540765182884
H          113.11406165109716      122.60066019504151      113.28927144079924
H          110.83546150054106      122.31056760309365      112.29890375081987
H          111.05224928408882      123.80398518801280      111.38770877861022
H          111.31467512161480      125.06256527688144      113.52892840327593
H          111.06714498487823      123.57200794160983      114.43180935399047
H          108.79941781251603      123.34005652557242      113.42289416893999
H          109.05344706735711      124.83253649334993      112.52068764065912
H          109.27393748279344      126.09345509064228      114.66726568221978
H          107.72017395370791      125.26691668145119      114.56741957035004
H          109.01153070922314      124.60292719058739      115.56921470401372
H          119.61851257078719      105.63371496835684      126.91696377691987
H          118.72536252607067      105.99949588192371      125.44183593709829
H          117.88138645948652      105.93597159070244      126.99034111347622
C          124.17924879678093       99.35889143736703      104.78484730646038
C          122.98127992935495       98.80072840069401      105.54290629698480
C          122.97230801069408       97.27446597917316      105.54709058879864
C          121.83608228263721       96.67648506667035      106.37870290465975
C          120.45301002176600       97.12441418720562      105.90625099692883
C          119.34103459683817       96.19822202349592      106.39184922472170
C          117.94025236161244       96.74905955146048      106.12115688574301
C          117.69499810229243       97.11398396861370      104.65797411278868
C          116.20734900537958       97.29407958181008      104.36013710342716
C          115.95394264499883       98.04848313309962      103.05125264685688
C          115.90669671618173       99.56126718703865      103.24985054165946
C          115.60653210199915      100.30993388120561      101.95363082737471
C          115.36644745860328      101.79858115329918      102.19599153737070
C          115.05713184495256      102.54529695488796      100.90087601461994
C          114.57468358848799      103.97885919160382      101.12244322545192
C          115.64316117706012      104.88516904431056      101.72950601838723
C          115.29212578709760      106.37118117565321      101.64937384126240
C          114.06110247625348      106.77756949270153      102.45420476990118
C          113.83020412524743      108.28530613878131      102.37703716873270
C          112.56780762885235      108.72452814354304      103.11277925809078
C          112.24406580928886      110.19898842614789      102.88720328520013