3258
 energy: -3427.578618998125 gnorm: 0.000950002960 xtb: 6.6.1 (8d0f1dd)
C          113.55839197048894      101.80939933995110      108.20018524873869
C          112.27910939266465      100.99102179007751      108.08651177064496
C          111.15786045595499      101.56073813871218      108.94928870248782
C          109.86919186808294      100.75347306521044      108.82739273786565
C          108.74285145845862      101.33382610809058      109.67705219351977
C          107.43467475536022      100.56513089992337      109.51120346232113
C          106.29724110646809      101.19679352736738      110.30777384928486
C          104.98996648406117      100.41717195907565      110.19284713607550
C          103.85906543691745      101.10624077989925      110.95042570324846
C          102.52865697087749      100.36457790068822      110.84878499342129
C          101.40336567069943      101.15540809379787      111.51014836124867
C          100.02473615661410      100.52686007898436      111.32175098268740
C           98.92813482073890      101.43577445937588      111.87140095824417
C           97.52259720847766      100.83852595182924      111.82360135765211
C           96.96600505887196      100.58314151129511      110.42167917145821
C           96.88326591304384      101.83483408732562      109.54872981535684
C           96.07138494069132      101.58538675302101      108.27766525531635
C           96.27782905466670      102.67345619049847      107.22653764141673
C           95.41587887565598      102.43990465663900      105.98825404044661
C           95.62090261541542      103.48304074835735      104.88781816408680
C           96.93667022000042      103.33209072300923      104.12802581470203
C           97.09829962054725      104.39101687224462      103.03578778307751
C           98.28102610180781      104.07001028333741      102.12546517701027
C           98.42564460254999      104.99688392222433      100.91755923405995
C           98.92952642439288      106.39683024096711      101.26242754152860
C           99.25695607844888      107.19400205036797      100.00055636727704
C           99.66232523173238      108.64326049494882      100.27066875733549
C          101.02952107531887      108.80187804792557      100.93187008159006
C          101.38271801310253      110.27593336966113      101.12239635471653
C          102.70662150207883      110.48278711000671      101.85359633585639
C          103.04137183934196      111.96347536455946      102.02455358419839
C          104.27922447382753      112.18385129216591      102.89014554415547
C          104.62095687270148      113.66350218111042      103.05627506760734
C          105.77072336747229      113.88036297562813      104.03656322631272
C          106.12172963881768      115.35444048142803      104.22593378010224
C          107.20704821706386      115.54440044856565      105.28253335341512
C          107.57842819145743      117.00744991616699      105.51403024264160
C          108.62526262778397      117.14680554544240      106.61650289058501
C          108.99879086177565      118.59373932366383      106.92954086932060
C          110.01936434158648      118.66816103775182      108.06336453253695
C          110.38233073318077      120.09716091293362      108.45897915188799
C          111.42902382589087      120.12996967461690      109.57166839069096
C          111.77241476884646      121.55641488767060      109.99524942895545
C          112.95751854805971      121.63990627502780      110.95910069530805
C          112.63398441693774      121.18557555268958      112.37885352397672
C          113.83394344346419      121.28430885846780      113.31932787682729
C          113.45714973265824      120.84763327262853      114.73253252370833
C          114.59726240307727      120.96957814598855      115.73918723600148
C          114.13764540470514      120.54574606794935      117.13263724364764
C          115.21495021054493      120.66352046796823      118.20928085733942
C          116.38203383341857      119.68654714722510      118.06575985405649
C          116.01035547552682      118.20461853736241      118.14110968513033
C          115.38895477747988      117.77933349251715      119.46840849643854
C          115.23786517319390      116.26184840106201      119.56440981234847
C          114.76371316191634      115.81659880847435      120.94485644264317
C          114.62599682808576      114.30047015731634      121.06098078872836
C          114.31143481220454      113.87578278440959      122.49343464169529
C          114.23408121667605      112.35999751350323      122.65403741421154
C          114.22178939001478      111.89733975575635      124.11051010003196
C          112.96972388134517      112.30796480590844      124.87993552269698
C          113.00399073349679      111.79238829064388      126.31650510990193
C          111.71620453536843      112.06498814263463      127.09484479528635
C          111.45984362242768      113.54860695701952      127.35381135421026
C          110.27933500331612      113.76038206419084      128.30000522720096
C          109.96881033701585      115.23623221449259      128.56199525618464
C          109.24350031890957      115.91037727008494      127.39921435493773
C          108.94480810773764      117.38163840490867      127.68687684606017
C          108.00170374331159      118.01593290418552      126.66248671857643
C          108.60118103043474      118.06944036773552      125.26000258268628
C          107.72617512575370      118.79573068060283      124.23714525212819
C          106.32013321678679      118.21814066910142      124.06291624409030
C          106.30187325605753      116.72095432169289      123.76414058937677
C          104.91835190442417      116.22970082972201      123.33152691660730
C          104.63886933106572      116.42454433128657      121.84062457342004
C          105.31922643461617      115.36247906719380      120.97967195602850
C          104.99066862482638      115.48534058783437      119.49244025362566
C          105.65999994339494      116.67330945757513      118.80691737651941
C          105.38822007715328      116.67322599163028      117.30465873572980
C          106.12183851248255      117.80180658807140      116.58855410826813
C          105.79974112795378      117.89634991440109      115.09761789468043
C          104.39973966343285      118.43165136693685      114.79848793370877
C          104.23528159978233      118.74467431175543      113.31325036230635
C          102.87765191402463      119.35258423706614      112.96944019541999
C          102.82020788243553      119.76546582802888      111.50040490213182
C          101.51634251283619      120.44776015280675      111.08719587565658
C          100.33100472412217      119.48966181594197      111.00692739839850
C           99.09592651045942      120.16186473259572      110.41112039857434
C           97.85215003845850      119.27228610272618      110.43292372532648
C           98.03381975615294      117.97546902325904      109.64850006807160
C           96.73622599857812      117.18406296783216      109.51194643488822
C           96.96523410934242      115.85347877354940      108.80075515643847
C           95.67388328406152      115.05981834102347      108.62451579205067
C           95.89127981717344      113.70689142500088      107.94659686304784
C           96.60439609443154      112.70144497397750      108.84590528741940
C           96.80976116492194      111.35559398810742      108.15606793337957
C           97.59164916593087      110.36285736750911      109.01697638427989
C           99.06860444406668      110.72571232144300      109.15594917826657
C           99.83771064012080      109.73810089495547      110.03159804538556
C          101.19531666060152      110.28680406079081      110.46436854555373
C          101.91086516703390      109.36021807642959      111.44354603041948
C          103.19100656248824      109.97824679015713      112.00241638400385
C          103.91488236820869      109.02108486456716      112.94480456433172
C          105.12136735448244      109.65026397653396      113.63654892803237
C          105.87832206102274      108.62046036028619      114.47309913762308
C          106.95273016362667      109.24658462051613      115.35662317622632
C          107.71550052634176      108.20029507384612      116.17265870921329
C          108.86122769034883      107.54143217546594      115.40113204937711
C          110.14687357881137      108.36134732962654      115.45698518674526
C          111.28362143031093      107.71716961857456      114.66908938246956
C          112.60019752125436      108.46824758753365      114.84439404269590
C          113.72630555030754      107.87940815174105      113.99921497716501
C          115.02758777565876      108.66235767191334      114.14741132757349
C          116.14551567744718      108.10501918656196      113.27221740269037
C          117.41501038227926      108.94764916062502      113.34987778425541
C          118.50832927530831      108.42175088623284      112.42462791495349
C          119.74003942772784      109.32188682991951      112.41050813620795
C          120.82485583913193      108.79289854062728      111.47554968553061
C          122.05843846743606      109.68928233367731      111.44004344333990
C          123.13623370177987      109.16404840515222      110.49859071718065
C          124.38362727603905      110.03661618400066      110.52175755898784
H          123.40247191408054      108.14530524947313      110.78969620689591
H          122.73704163920718      109.11910034375990      109.48312835692803
H          121.76766996827062      110.69678938115942      111.13094104363282
H          122.48160563353503      109.76374252401590      112.44344179937950
H          121.12085283530971      107.79111541211051      111.79883938962784
H          120.41905299094654      108.70006465493003      110.46532820435375
H          119.44732876265623      110.32550878362163      112.09391847752451
H          120.13766702398813      109.40137123996963      113.42391019570267
H          118.79964809038847      107.41659322197239      112.74212391402210
H          118.11115775472678      108.33818882849295      111.41003416401635
H          117.17811940747141      109.97675321351797      113.07168494609850
H          117.78119626372157      108.96155148113424      114.37910841193276
H          116.37221535048492      107.08035795454741      113.57872368078039
H          115.80358359105078      108.06776796662089      112.23521653236426
H          114.85150845566260      109.70397353327147      113.86988441282159
H          115.34255661218243      108.65123112244027      115.19346903783980
H          113.89584832541384      106.83972280536246      114.29144721030899
H          113.42710811063465      107.87479661406870      112.94783214442208
H          112.45538063574666      109.51359566004790      114.56422540512349
H          112.88862105823860      108.44357497335854      115.89794023928818
H          111.41465721836441      106.68363494832025      115.00204257705346
H          111.01740043857741      107.68628728548272      113.61025107096101
H          109.95816643839748      109.36081122757273      115.06188295885860
H          110.45338098136857      108.47213928907615      116.50053530843766
H          109.06331099691084      106.55521067492144      115.82816017152106
H          108.56813278011185      107.39005760049341      114.36096339219166
H          108.12754453272672      108.66485222367056      117.07266236981852
H          107.00737136144249      107.43666175913005      116.50290653697378
H          107.65128218959769      109.81843957410381      114.74311672088281
H          106.46699785174948      109.95070554583877      116.03700693760668
H          105.16599989288297      108.08997169451555      115.11034133906973
H          106.33414256191112      107.88169473078159      113.81093429749784
H          105.79156260204417      110.08374124063205      112.88964266394073
H          104.78107020893674      110.46538082458092      114.28088922995175
H          103.21564731664967      108.67029479926691      113.70788868814525
H          104.24413193865080      108.14732386532908      112.37613077238592
H          103.85692409994397      110.24672448217503      111.17790669155754
H          102.94222249441978      110.89827770517175      112.53883627688388
H          101.23792655497182      109.13214739530166      112.27404576451430
H          102.14808919531379      108.41550841871343      110.94663915157231
H          101.82302495397020      110.44623571660328      109.58433904158360
H          101.04555358652559      111.25747572101123      110.94410312045059
H           99.24494637620742      109.51856742335481      110.92313415312856
H           99.97722731219223      108.79573437926850      109.49718606193775
H           99.52280536101584      110.76971831944471      108.16390327685438
H           99.15595515868483      111.72063191452075      109.59569990837183
H           97.13596867103819      110.31645523350686      110.00990312370313
H           97.50984686886545      109.36957893633873      108.56997012642215
H           95.83170694837661      110.92905060548442      107.91710956334019
H           97.33988351001749      111.50865102000628      107.21215703937031
H           97.57313950363002      113.10714802784248      109.13582972146104
H           96.02034634883618      112.55410574680246      109.75807531488442
H           94.92197695822412      113.29499815940764      107.65353762702186
H           96.47380036959807      113.85372727179858      107.03347997158407
H           95.21292545804313      114.90230732718157      109.60238855855610
H           94.97775861586388      115.65306000277774      108.02455077846443
H           97.40717291266832      116.03964956246691      107.81816090188322
H           97.68141902631091      115.26884690793065      109.38075334885404
H           96.31984243876687      116.99403366572687      110.50532614069596
H           96.00408151001155      117.77355623201527      108.95542865077915
H           98.41617251096342      118.21191749241575      108.65329220716714
H           98.77370286097835      117.34905740868797      110.14930128060067
H           97.59273029328413      119.03729566252493      111.46884488173677
H           97.01519007529380      119.83444470107462      110.00818332288779
H           98.88157133735136      121.07880618680399      110.96816751272081
H           99.30929005712693      120.45381911801276      109.37875180088213
H          100.61202904956606      118.63972648871739      110.38335903842589
H          100.08954275737356      119.11271552164126      112.00230565082708
H          101.28971036773852      121.25365045216317      111.78952254661569
H          101.65960454695106      120.90267915764944      110.10220698759365
H          103.64599113197345      120.45591669832633      111.31034220275009
H          102.97845433625241      118.88661073962093      110.87114838524140
H          102.08575489349197      118.63392456852333      113.19174314725747
H          102.71147079194753      120.23423302693939      113.59335060468700
H          105.01507021784110      119.44984041338547      113.01517537298699
H          104.37773340557544      117.82928824110262      112.73287098015166
H          103.64292140000943      117.70653639611311      115.10515443053049
H          104.23306551122909      119.34546861017797      115.37541527276829
H          106.52506725042237      118.57002801774711      114.63618512348506
H          105.92176304525725      116.91470894221098      114.63443106204180
H          105.88167420035003      118.75457738189839      117.06820652667835
H          107.19697909762010      117.64347581512050      116.70872479567274
H          105.70635480684072      115.71605283060865      116.88301080594165
H          104.31405006962125      116.76556924739405      117.13560573088520
H          105.29835696068282      117.61063869940514      119.23551869613682
H          106.73900185608808      116.62637212227833      118.97826868873150
H          105.32146378673046      114.57445212829650      118.99014973310443
H          103.90701571436698      115.55613384969992      119.36605509162192
H          106.40212250643225      115.41315311777996      121.11004177346304
H          104.99260873436036      114.37841675856141      121.32929111197892
H          103.56083141847689      116.36731219516153      121.67215935063230
H          104.97004681625451      117.41866725873467      121.53683441645582
H          104.82323044191523      115.16584279206938      123.56347893374503
H          104.16211508776919      116.75785101113533      123.91858964711940
H          107.02786642554823      116.49893579240978      122.98082071203427
H          106.60348004522881      116.17652522416084      124.66068157681185
H          105.73096699454089      118.41061437280224      124.96310529967643
H          105.83770964938114      118.75152521325579      123.24167660647780
H          107.63499195698512      119.84677908818071      124.52493808560189
H          108.23995980231268      118.76419092552227      123.27221189896883
H          109.56260150940675      118.58777271242135      125.31691736649802
H          108.79557475802585      117.05686217356745      124.90596035169918
H          107.07059111348489      117.44653122384868      126.64758959570386
H          107.76183394574053      119.03292959141427      126.98544995662330
H          108.48557364498727      117.46054991997512      128.67632200587758
H          109.88245633676328      117.94265534928633      127.71623956706789
H          109.85259498689221      115.83100553902375      126.49885325276699
H          108.30410261554825      115.38255792127181      127.21575836940183
H          109.34164542425160      115.31196867080833      129.45438719746033
H          110.89957806635930      115.76963151528125      128.77087296082439
H          109.39035989425365      113.27552717707913      127.88841175238497
H          110.50555292699012      113.27185125976604      129.25166897218085
H          112.35320393201339      113.99398885713437      127.79867046520440
H          111.26848604267931      114.05695302325134      126.40885540215146
H          110.86908615378562      111.64166238715561      126.54895594371260
H          111.77595825382630      111.54781278569496      128.05683717933056
H          113.17553576753434      110.71186318328081      126.30001780181206
H          113.84628326027583      112.24860996659685      126.84335066517694
H          112.88647361924571      113.39448146701918      124.89115332813554
H          112.08879724721785      111.90682884016620      124.37389068487674
H          114.30159672872131      110.80764217820681      124.13060430699103
H          115.10298232631438      112.29638290939936      124.62048565583230
H          113.34093689053462      111.98429501259187      122.14884371563610
H          115.10539242331821      111.91671343954374      122.16364358530788
H          115.09143915595865      114.26491799473560      123.15409705228174
H          113.36246826214476      114.32329517771900      122.79417784726306
H          113.83616550174187      113.95134172375033      120.39226114360422
H          115.55944599336594      113.82865500271591      120.74258658727294
H          115.47972448400751      116.16444910921236      121.69532712316565
H          113.80240860033719      116.28324424572874      121.16894141552864
H          114.52965046976756      115.91919661763156      118.80649420640265
H          116.20129704438291      115.79064913500552      119.35343667661017
H          116.02157783108025      118.13027365961926      120.28814819307460
H          114.40831265688028      118.24531289828425      119.58547103097165
H          115.32928991693974      117.94663378364207      117.32794270731812
H          116.92646194058263      117.62667770673238      117.99092651170324
H          116.88728359505760      119.86635045529582      117.11428114872145
H          117.10034964898658      119.90467863897214      118.85909707418497
H          115.61692619473912      121.68030805278092      118.19434568339693
H          114.75056200965810      120.51854841805590      119.18713847685552
H          113.29505617867753      121.17637148887219      117.42679892887313
H          113.77415999766320      119.51687797063404      117.09103333053451
H          115.43050116153765      120.34557312452515      115.41484905092167
H          114.94442164619163      122.00530761323671      115.77122154702560
H          112.61709877530450      121.45667930037193      115.07694558145018
H          113.11878348312960      119.80781291803399      114.70546660557328
H          114.64702809974462      120.65885621414620      112.94419430174123
H          114.19499172985198      122.31602012420079      113.34258851337458
H          111.82782229695211      121.80758110009802      112.77497863488142
H          112.28113227047660      120.15180860281832      112.36360186385087
H          113.77694186770255      121.03563273273669      110.56362159145149
H          113.30110448537785      122.67841973929067      111.00171334353864
H          112.01845464048466      122.12993957270317      109.09829155644053
H          110.89768871478792      122.02464465832955      110.45268152443735
H          111.05639394874751      119.56659891235999      110.43033215282283
H          112.33603385901114      119.63482264376724      109.21689244229123
H          110.77027109485066      120.62877417352105      107.58563161215368
H          109.48413357101211      120.62384602934722      108.79133501375328
H          109.61256919960535      118.15214056066976      108.93726310184046
H          110.92625720097148      118.14029716676222      107.75977067016909
H          109.41165931423292      119.06946504076008      106.03529184785067
H          108.09972903805375      119.14680966075639      107.21284381263291
H          108.23596944554116      116.68380615751494      107.52699720787032
H          109.52440463409027      116.59860136726604      106.32767892619600
H          107.96541390052371      117.43870382349388      104.58591918332954
H          106.68162222881064      117.56750547508342      105.79078611439469
H          106.85635747647564      115.11807456196136      106.22595739753612
H          108.09915821770750      114.99005734854042      104.98501803295495
H          106.46244274811870      115.77247764545311      103.27393295256122
H          105.22438193321611      115.90317480013492      104.52362847667354
H          105.49530951567425      113.45516631407435      105.00492412199796
H          106.65271179711550      113.34310432620856      103.68337846948694
H          104.88838346816709      114.08390533247012      102.08241722666432
H          103.73835920708653      114.20098955938172      103.41200844354020
H          104.10842300442775      111.74123584064729      103.87535043672025
H          105.12937234462950      111.66529322503655      102.44283262231339
H          103.19963998907242      112.41540014595444      101.04133732648414
H          102.18984413816888      112.47391271795738      102.48170752573687
H          102.65093607000433      110.01211576245555      102.83794447168100
H          103.50779361003815      109.99101432463459      101.29772405065279
H          101.42994257440209      110.76478620056817      100.14530310608959
H          100.58280908614788      110.76235616942613      101.68779575092044
H          101.02672698264294      108.30717925008437      101.90408480017281
H          101.79154359831615      108.32097209450711      100.31340382623512
H           99.67262586530734      109.18367662205073       99.32010394603493
H           98.90417408059422      109.11193870213960      100.90272861853887
H          100.05990549445242      106.69008392260983       99.45499349017635
H           98.37307023356556      107.19811438373816       99.35478324122759
H           98.16949191164460      106.93121969612776      101.83606043095298
H           99.82379776274985      106.30951330452899      101.88297048625898
H           99.13328027933011      104.54211291533895      100.21793503444944
H           97.46599875249053      105.07178528124298      100.40000561797264
H           99.20381872707216      104.09817254857484      102.70922484921627
H           98.15696971800814      103.04756642455622      101.75806936239361
H           96.18627386932336      104.43148429020101      102.43527420455605
H           97.23120876673762      105.37131473778713      103.49661647199221
H           97.77787988058680      103.40052700351944      104.82058681505318
H           96.96824399041996      102.33936543427754      103.67065633111906
H           94.80014935292346      103.39428269689050      104.17114995246540
H           95.57030097908665      104.48168915678572      105.32597873531709
H           95.62568787246809      101.44659521537467      105.58305326588243
H           94.36468897816225      102.44667306952198      106.28998411549273
H           96.03230688254881      103.64704704066231      107.65676307401320
H           97.33062360273932      102.68725194827542      106.94001399816574
H           96.36255908027691      100.62501554218886      107.84960570061575
H           95.00970574337128      101.51893540707742      108.53045079498249
H           96.42742892665505      102.64803158670844      110.11844728982365
H           97.88955691479714      102.14803040940805      109.26754349858206
H           97.57541631377376       99.83038787087419      109.91557630823844
H           95.96046510293000      100.16361724214002      110.52992994523144
H           97.52415650058771       99.89413223294579      112.37561863636618
H           96.84496868844268      101.51873513919254      112.34618598314540
H           99.16273119457279      101.66690166839329      112.91364440098214
H           98.93477234305040      102.37951394767308      111.32373360992914
H           99.85641398015328      100.34156955551889      110.25850515333150
H           99.98981684795164       99.56296478986175      111.83617297730251
H          101.60975147375123      101.25739928212896      112.57731446232371
H          101.39226926520720      102.16152931136139      111.08539877718398
H          102.28569086552562      100.20038521135635      109.79625345336767
H          102.61789506758686       99.38224034126178      111.31968898878516
H          104.13582212093112      101.20813571384531      112.00119718428995
H          103.73340273777261      102.11564220439287      110.54964428339298
H          104.71530850821830      100.32174590520331      109.13944304370555
H          105.13133240604886       99.40617029855183      110.58430951476187
H          106.58530310301084      101.26468351358979      111.35852725494706
H          106.13585675171511      102.21684936999922      109.94919374173085
H          107.16173364356970      100.53931551624605      108.45323488563413
H          107.57624815683077       99.53033669137020      109.83439312436758
H          109.04006040321907      101.32295980756348      110.72717668212248
H          108.58440531219499      102.37661548820145      109.39478776225769
H          109.55760033356802      100.73100796557763      107.77933210536609
H          110.05723428118333       99.71906331513686      109.12694210504787
H          111.47724207654063      101.58125387847865      109.99272008062898
H          110.96518480480613      102.59337147341640      108.64736831934049
H          111.95008612622709      100.97264482277197      107.04454645005272
H          112.47531094951141       99.95805601971897      108.38672797640980
H          114.34920817814451      101.38321692368984      107.58603890823711
H          113.38496465716969      102.83007432847633      107.86901483955242
H          113.90268059384056      101.83902198920349      109.23046382638307
H          124.14296558982916      111.05381658547026      110.22168546675584
H          124.81111372628867      110.06653941490916      111.52144190222134
H          125.13793492444420      109.64597416350423      109.84307221476797
C          126.26647356500595      105.40699052906901      114.98642070747803
C          125.57231140270406      105.47083875528577      113.63230998898547
C          124.23956514656673      104.72787110140843      113.63845008737289
C          123.54948201133075      104.78861362159351      112.27804125884177
C          122.28840263696405      103.92976222500219      112.20028872148708
C          121.13983076572413      104.45486891918520      113.05629234127399
C          119.88677310946011      103.59513238346317      112.91623900409691
C          118.73544210521447      104.12968899331383      113.76181748218454
C          117.46476234786368      103.30014177912400      113.60866376287544
C          116.32965683991144      103.84616370795902      114.46791350195218
C          115.03477923110727      103.05873767450655      114.30309652427984
C          113.91627988131329      103.62353922731369      115.17172188828043
C          112.60782684954765      102.85886641915357      115.00975324559688
C          111.49697568364239      103.44003514649562      115.87678531794209
C          110.17928954266652      102.69102578335144      115.71222717566788
C          109.05989606482227      103.33019234012166      116.52473666779595
C          107.72447482550865      102.61267838407757      116.35793739691027
C          106.60965027224248      103.35586985624644      117.08310869235503
C          105.24239027286082      102.69761239159328      116.93781301643959
C          104.16415065433480      103.52284742888888      117.63066679200458
C          102.76822705628337      102.92301635026678      117.50081543575614