      -----------------------------------------------------------      
     |                   =====================                   |     
     |                           x T B                           |     
     |                   =====================                   |     
     |                         S. Grimme                         |     
     |          Mulliken Center for Theoretical Chemistry        |     
     |                    University of Bonn                     |     
      -----------------------------------------------------------      

   * xtb version 6.6.1 (8d0f1dd) compiled by 'stahn@M-Bot' on 2023-08-01

   xtb is free software: you can redistribute it and/or modify it under
   the terms of the GNU Lesser General Public License as published by
   the Free Software Foundation, either version 3 of the License, or
   (at your option) any later version.
   
   xtb is distributed in the hope that it will be useful,
   but WITHOUT ANY WARRANTY; without even the implied warranty of
   MERCHANTABILITY or FITNESS FOR A PARTICULAR PURPOSE.  See the
   GNU Lesser General Public License for more details.
   
   Cite this work as:
   * C. Bannwarth, E. Caldeweyher, S. Ehlert, A. Hansen, P. Pracht,
     J. Seibert, S. Spicher, S. Grimme, WIREs Comput. Mol. Sci., 2020, 11,
     e01493. DOI: 10.1002/wcms.1493
   
   for GFN2-xTB:
   * C. Bannwarth, S. Ehlert and S. Grimme., J. Chem. Theory Comput., 2019,
     15, 1652-1671. DOI: 10.1021/acs.jctc.8b01176
   for GFN1-xTB:
   * S. Grimme, C. Bannwarth, P. Shushkov, J. Chem. Theory Comput., 2017,
     13, 1989-2009. DOI: 10.1021/acs.jctc.7b00118
   for GFN0-xTB:
   * P. Pracht, E. Caldeweyher, S. Ehlert, S. Grimme, ChemRxiv, 2019, preprint.
     DOI: 10.26434/chemrxiv.8326202.v1
   for GFN-FF:
   * S. Spicher and S. Grimme, Angew. Chem. Int. Ed., 2020, 59, 15665-15673.
     DOI: 10.1002/anie.202004239
   
   for ALPB and GBSA implicit solvation:
   * S. Ehlert, M. Stahn, S. Spicher, S. Grimme, J. Chem. Theory Comput.,
     2021, 17, 4250-4261. DOI: 10.1021/acs.jctc.1c00471
   
   for DFT-D4:
   * E. Caldeweyher, C. Bannwarth and S. Grimme, J. Chem. Phys., 2017,
     147, 034112. DOI: 10.1063/1.4993215
   * E. Caldeweyher, S. Ehlert, A. Hansen, H. Neugebauer, S. Spicher,
     C. Bannwarth and S. Grimme, J. Chem. Phys., 2019, 150, 154122.
     DOI: 10.1063/1.5090222
   * E. Caldeweyher, J.-M. Mewes, S. Ehlert and S. Grimme, Phys. Chem. Chem. Phys.
     2020, 22, 8499-8512. DOI: 10.1039/D0CP00502A
   
   for sTDA-xTB:
   * S. Grimme and C. Bannwarth, J. Chem. Phys., 2016, 145, 054103.
     DOI: 10.1063/1.4959605
   
   in the mass-spec context:
   * V. Asgeirsson, C. Bauer and S. Grimme, Chem. Sci., 2017, 8, 4879.
     DOI: 10.1039/c7sc00601b
   * J. Koopman and S. Grimme, ACS Omega 2019, 4, 12, 15120-15133.
     DOI: 10.1021/acsomega.9b02011
   
   for metadynamics refer to:
   * S. Grimme, J. Chem. Theory Comput., 2019, 155, 2847-2862
     DOI: 10.1021/acs.jctc.9b00143
   
   for SPH calculations refer to:
   * S. Spicher and S. Grimme, J. Chem. Theory Comput., 2021, 17, 1701-1714
     DOI: 10.1021/acs.jctc.0c01306
   
   with help from (in alphabetical order)
   P. Atkinson, C. Bannwarth, F. Bohle, G. Brandenburg, E. Caldeweyher
   M. Checinski, S. Dohm, S. Ehlert, S. Ehrlich, I. Gerasimov, C. Hölzer
   A. Katbashev, J. Koopman, C. Lavigne, S. Lehtola, F. März, M. Müller,
   F. Musil, H. Neugebauer, J. Pisarek, C. Plett, P. Pracht, F. Pultar,
   J. Seibert, P. Shushkov, S. Spicher, M. Stahn, M. Steiner, T. Strunk,
   J. Stückrath, T. Rose, and J. Unsleber
   
 * started run on 2024/06/17 at 15:18:47.430     

           -------------------------------------------------
          |                Calculation Setup                |
           -------------------------------------------------

          program call               : /home/abt-grimme/AK-bin/xtb input.xyz --input input.inp --opt --gbsa water
          hostname                   : boar004.thch.uni-bonn.de
          coordinate file            : input.xyz
          omp threads                :                     8

   ID    Z sym.   atoms
    1    6 C      1-120, 363-482, 725-844, 1087-1206, 1449-1568, 1811-1930,
                  2173-2292, 2535-2654, 2897-3016
    2    1 H      121-362, 483-724, 845-1086, 1207-1448, 1569-1810,
                  1931-2172, 2293-2534, 2655-2896, 3017-3258

molecular fragmentation (1/2 indicates fragments):
111111111111111111111111111111111111111111111111111111111111111111111111
111111111111111111111111111111111111111111111111111111111111111111111111
111111111111111111111111111111111111111111111111111111111111111111111111
111111111111111111111111111111111111111111111111111111111111111111111111
111111111111111111111111111111111111111111111111111111111111111111111111
112222222222222222222222222222222222222222222222222222222222222222222222
222222222222222222222222222222222222222222222222222222222222222222222222
222222222222222222222222222222222222222222222222222222222222222222222222
222222222222222222222222222222222222222222222222222222222222222222222222
222222222222222222222222222222222222222222222222222222222222222222222222
222222222222222222222222222222222222222222222222222222222222222222222222
222222222222222222222222222222222222222222222222222222222222222222222222
222222222222222222222222222222222222222222222222222222222222222222222222
222222222222222222222222222222222222222222222222222222222222222222222222
222222222222222222222222222222222222222222222222222222222222222222222222
222222222222222222222222222222222222222222222222222222222222222222222222
222222222222222222222222222222222222222222222222222222222222222222222222
222222222222222222222222222222222222222222222222222222222222222222222222
222222222222222222222222222222222222222222222222222222222222222222222222
222222222222222222222222222222222222222222222222222222222222222222222222
222222222222222222222222222222222222222222222222222222222222222222222222
222222222222222222222222222222222222222222222222222222222222222222222222
222222222222222222222222222222222222222222222222222222222222222222222222
222222222222222222222222222222222222222222222222222222222222222222222222
222222222222222222222222222222222222222222222222222222222222222222222222
222222222222222222222222222222222222222222222222222222222222222222222222
222222222222222222222222222222222222222222222222222222222222222222222222
222222222222222222222222222222222222222222222222222222222222222222222222
222222222222222222222222222222222222222222222222222222222222222222222222
222222222222222222222222222222222222222222222222222222222222222222222222
222222222222222222222222222222222222222222222222222222222222222222222222
222222222222222222222222222222222222222222222222222222222222222222222222
222222222222222222222222222222222222222222222222222222222222222222222222
222222222222222222222222222222222222222222222222222222222222222222222222
222222222222222222222222222222222222222222222222222222222222222222222222
222222222222222222222222222222222222222222222222222222222222222222222222
222222222222222222222222222222222222222222222222222222222222222222222222
222222222222222222222222222222222222222222222222222222222222222222222222
222222222222222222222222222222222222222222222222222222222222222222222222
222222222222222222222222222222222222222222222222222222222222222222222222
222222222222222222222222222222222222222222222222222222222222222222222222
222222222222222222222222222222222222222222222222222222222222222222222222
222222222222222222222222222222222222222222222222222222222222222222222222
222222222222222222222222222222222222222222222222222222222222222222222222
222222222222222222222222222222222222222222222222222222222222222222222222
222222222222222222
# atoms in fragment 1/2:   362  2896
 fragment masses (1/2) :     1685.21    13481.68
CMA distance (Bohr)    :   7.850
constraining FC (au)   :  0.0500

           -------------------------------------------------
          |                 G F N 2 - x T B                 |
           -------------------------------------------------

        Reference                      10.1021/acs.jctc.8b01176
      * Hamiltonian:
        H0-scaling (s, p, d)           1.850000    2.230000    2.230000
        zeta-weighting                 0.500000
      * Dispersion:
        s8                             2.700000
        a1                             0.520000
        a2                             5.000000
        s9                             5.000000
      * Repulsion:
        kExp                           1.500000    1.000000
        rExp                           1.000000
      * Coulomb:
        alpha                          2.000000
        third order                    shell-resolved
        anisotropic                    true
        a3                             3.000000
        a5                             4.000000
        cn-shift                       1.200000
        cn-exp                         4.000000
        max-rad                        5.000000

      * Solvation model:               GBSA
        Solvent                        water
        Parameter file                 internal GFN2-xTB/GBSA
        Dielectric constant                8.0200E+01
        Reference state                gsolv [1 M gas/solution]
        Free energy shift                  1.8574E-03 Eh       1.1656E+00 kcal/mol
        Temperature                        2.9815E+02 K
        Density                            1.0000E+00 kg/L
        Solvent mass                       1.8000E+01 g/mol
        Interaction kernel             Still
        Born radius scaling (c1)           1.5524E+00
        Born radii integrator          GBOBC
        Born offset                        2.4628E-02 a0       4.6540E-02 AA
        H-bond correction              true
        Ion screening                  false
        Surface tension                    1.0000E-05 Eh       1.5569E+01 dyn/cm
        Grid points                               230 per atom
q/qsh data taken from xtbrestart
CAMM data taken from xtbrestart

          ...................................................
          :                      SETUP                      :
          :.................................................:
          :  # basis functions                6498          :
          :  # atomic orbitals                6498          :
          :  # shells                         4338          :
          :  # electrons                      6498          :
          :  max. iterations                   250          :
          :  Hamiltonian                  GFN2-xTB          :
          :  restarted?                       true          :
          :  GBSA solvation                   true          :
          :  PC potential                    false          :
          :  electronic temp.          300.0000000     K    :
          :  accuracy                    1.0000000          :
          :  -> integral cutoff          0.2500000E+02      :
          :  -> integral neglect         0.1000000E-07      :
          :  -> SCF convergence          0.1000000E-05 Eh   :
          :  -> wf. convergence          0.1000000E-03 e    :
          :  Broyden damping             0.4000000          :
          ...................................................

 iter      E             dE          RMSdq      gap      omega  full diag
   1  -3472.3535978 -0.347235E+04  0.709E-05   10.54       0.0  T
   2  -3472.3535978 -0.349155E-08  0.552E-05   10.54      31.8  T
   3  -3472.3535978 -0.525461E-08  0.277E-05   10.54      63.2  T

   *** convergence criteria satisfied after 3 iterations ***

         #    Occupation            Energy/Eh            Energy/eV
      -------------------------------------------------------------
         1        2.0000           -0.6165045             -16.7759
       ...           ...                  ...                  ...
      3243        2.0000           -0.3845582             -10.4644
      3244        2.0000           -0.3844924             -10.4626
      3245        2.0000           -0.3838345             -10.4447
      3246        2.0000           -0.3831065             -10.4249
      3247        2.0000           -0.3828720             -10.4185
      3248        2.0000           -0.3817933             -10.3891
      3249        2.0000           -0.3799580             -10.3392 (HOMO)
      3250                          0.0073056               0.1988 (LUMO)
      3251                          0.0103669               0.2821
      3252                          0.0145415               0.3957
      3253                          0.0158830               0.4322
      3254                          0.0170570               0.4641
       ...                                ...                  ...
      6498                          0.3860168              10.5041
      -------------------------------------------------------------
                  HL-Gap            0.3872636 Eh           10.5380 eV
             Fermi-level           -0.1863262 Eh           -5.0702 eV

 SCC (total)                   0 d,  0 h,  7 min,  6.926 sec
 SCC setup                      ...        0 min,  1.692 sec (  0.396%)
 Dispersion                     ...        0 min,  3.665 sec (  0.858%)
 classical contributions        ...        0 min,  0.178 sec (  0.042%)
 integral evaluation            ...        0 min,  5.968 sec (  1.398%)
 iterations                     ...        3 min,  2.718 sec ( 42.799%)
 molecular gradient             ...        3 min, 44.215 sec ( 52.519%)
 printout                       ...        0 min,  8.489 sec (  1.988%)

         :::::::::::::::::::::::::::::::::::::::::::::::::::::
         ::                     SUMMARY                     ::
         :::::::::::::::::::::::::::::::::::::::::::::::::::::
         :: total energy           -3426.854951962254 Eh    ::
         :: total w/o Gsasa/hb     -3426.763282373754 Eh    ::
         :: gradient norm              0.632266811592 Eh/a0 ::
         :: HOMO-LUMO gap             10.537978919359 eV    ::
         ::.................................................::
         :: SCC energy             -3472.353597804242 Eh    ::
         :: -> isotropic ES            0.278571140306 Eh    ::
         :: -> anisotropic ES          1.297066343268 Eh    ::
         :: -> anisotropic XC          2.130653832564 Eh    ::
         :: -> dispersion             -4.297875588695 Eh    ::
         :: -> Gsolv                  -0.028978558698 Eh    ::
         ::    -> Gelec                0.062691029803 Eh    ::
         ::    -> Gsasa               -0.089478060538 Eh    ::
         ::    -> Ghb                 -0.004048971089 Eh    ::
         ::    -> Gshift               0.001857443127 Eh    ::
         :: repulsion energy          44.779835989933 Eh    ::
         :: add. restraining           0.000000000000 Eh    ::
         :: total charge              -0.000000000013 e     ::
         :::::::::::::::::::::::::::::::::::::::::::::::::::::

      ----------------------------------------------------------- 
     |              Fast Inertial Relaxation Engine              |
      ----------------------------------------------------------- 

          ...................................................
          :                      SETUP                      :
          :.................................................:
          :   energy convergence        0.5000000E-05 Eh    :
          :   grad. convergence         0.1000000E-02 Eh/a0 :
          :   optimization log               true           :
          :   writing optlog all                1     steps :
          :   Hessian reset                    20     steps :
          :   time step scaling                 5     steps :
          :   maximium step len.        1.0000000     a0    :
          :   initial time step         0.2500000     fs    :
          :   maximum time step         1.2500000     fs    :
          :   power reset thr           0.0000000     au    :
          :   alpha parameter           0.1000000           :
          :   BFGS update                   false           :
          :   preconditioning               false           :
          ...................................................

........................................................................
.............................. CYCLE    1 ..............................
........................................................................

 iter      E             dE          RMSdq      gap      omega  full diag
   1  -3472.5873223 -0.347259E+04  0.743E-03   10.58       0.0  T
   2  -3472.5873659 -0.436050E-04  0.391E-03   10.58       1.0  T
   3  -3472.5873663 -0.418726E-06  0.181E-03   10.58       1.0  T
   4  -3472.5873665 -0.145340E-06  0.219E-04   10.58       8.0  T
   5  -3472.5873665 -0.348855E-07  0.137E-04   10.58      12.8  T
     SCC iter.                  ...        5 min,  4.473 sec
     gradient                   ...        3 min, 43.843 sec
 * total energy  : -3426.9003655 Eh     change    :  -0.4541358E-01 Eh
   gradient norm :     0.5987359 Eh/a0  converged?    E=F G=F D=F
   time step     :     0.2500000 fs     power     :   0.2344071E-05
   step length   :     0.0741003 a0     speed     :   0.7169604E-02

........................................................................
.............................. CYCLE    2 ..............................
........................................................................

 iter      E             dE          RMSdq      gap      omega  full diag
   1  -3472.9318099 -0.347293E+04  0.109E-02   10.63       0.0  T
   2  -3472.9319034 -0.934341E-04  0.572E-03   10.63       1.0  T
   3  -3472.9319043 -0.956105E-06  0.264E-03   10.63       1.0  T
   4  -3472.9319047 -0.350135E-06  0.336E-04   10.63       5.2  T
   5  -3472.9319048 -0.817604E-07  0.217E-04   10.63       8.1  T
     SCC iter.                  ...        4 min, 59.519 sec
     gradient                   ...        3 min, 43.217 sec
 * total energy  : -3426.9628815 Eh     change    :  -0.6251593E-01 Eh
   gradient norm :     0.5504679 Eh/a0  converged?    E=F G=F D=F
   time step     :     0.2500000 fs     power     :   0.3174343E-05
   step length   :     0.1090663 a0     speed     :   0.1055275E-01

........................................................................
.............................. CYCLE    3 ..............................
........................................................................

 iter      E             dE          RMSdq      gap      omega  full diag
   1  -3473.3780038 -0.347338E+04  0.139E-02   10.70       0.0  T
   2  -3473.3781558 -0.152071E-03  0.733E-03   10.70       1.0  T
   3  -3473.3781575 -0.164054E-05  0.337E-03   10.70       1.0  T
   4  -3473.3781581 -0.594752E-06  0.440E-04   10.70       4.0  T
   5  -3473.3781582 -0.135876E-06  0.286E-04   10.70       6.1  T
     SCC iter.                  ...        5 min,  4.913 sec
     gradient                   ...        3 min, 42.692 sec
 * total energy  : -3427.0360352 Eh     change    :  -0.7315375E-01 Eh
   gradient norm :     0.4901920 Eh/a0  converged?    E=F G=F D=F
   time step     :     0.2500000 fs     power     :   0.3643837E-05
   step length   :     0.1412071 a0     speed     :   0.1366254E-01

........................................................................
.............................. CYCLE    4 ..............................
........................................................................

 iter      E             dE          RMSdq      gap      omega  full diag
   1  -3473.9144113 -0.347391E+04  0.165E-02   10.78       0.0  T
   2  -3473.9146209 -0.209619E-03  0.868E-03   10.78       1.0  T
   3  -3473.9146233 -0.242433E-05  0.395E-03   10.78       1.0  T
   4  -3473.9146242 -0.849740E-06  0.531E-04   10.77       3.3  T
   5  -3473.9146243 -0.188159E-06  0.344E-04   10.77       5.1  T
     SCC iter.                  ...        5 min,  0.917 sec
     gradient                   ...        3 min, 42.800 sec
 * total energy  : -3427.1125538 Eh     change    :  -0.7651853E-01 Eh
   gradient norm :     0.4223038 Eh/a0  converged?    E=F G=F D=F
   time step     :     0.2500000 fs     power     :   0.3722745E-05
   step length   :     0.1696686 a0     speed     :   0.1641635E-01

........................................................................
.............................. CYCLE    5 ..............................
........................................................................

 iter      E             dE          RMSdq      gap      omega  full diag
   1  -3474.5271993 -0.347453E+04  0.185E-02   10.80       0.0  T
   2  -3474.5274547 -0.255443E-03  0.972E-03   10.80       1.0  T
   3  -3474.5274580 -0.325545E-05  0.435E-03   10.79       1.0  T
   4  -3474.5274590 -0.108190E-05  0.608E-04   10.79       2.9  T
   5  -3474.5274593 -0.228024E-06  0.391E-04   10.79       4.5  T
   6  -3474.5274594 -0.119402E-06  0.165E-04   10.79      10.6  T
     SCC iter.                  ...        6 min,  2.283 sec
     gradient                   ...        3 min, 42.287 sec
 * total energy  : -3427.1853861 Eh     change    :  -0.7283235E-01 Eh
   gradient norm :     0.3534601 Eh/a0  converged?    E=F G=F D=F
   time step     :     0.2500000 fs     power     :   0.3439719E-05
   step length   :     0.1937214 a0     speed     :   0.1874359E-01

........................................................................
.............................. CYCLE    6 ..............................
........................................................................

 iter      E             dE          RMSdq      gap      omega  full diag
   1  -3475.2736775 -0.347527E+04  0.220E-02   10.80       0.0  T
   2  -3475.2740196 -0.342053E-03  0.116E-02   10.80       1.0  T
   3  -3475.2740245 -0.495926E-05  0.503E-03   10.80       1.0  T
   4  -3475.2740260 -0.148064E-05  0.732E-04   10.79       2.4  T
   5  -3475.2740263 -0.291186E-06  0.459E-04   10.79       3.8  T
   6  -3475.2740264 -0.134631E-06  0.175E-04   10.79      10.0  T
     SCC iter.                  ...        5 min, 54.724 sec
     gradient                   ...        3 min, 44.288 sec
 * total energy  : -3427.2547647 Eh     change    :  -0.6937861E-01 Eh
   gradient norm :     0.2870450 Eh/a0  converged?    E=F G=F D=F
   time step     :     0.2750000 fs     power     :   0.2802151E-05
   step length   :     0.2361468 a0     speed     :   0.2077134E-01

........................................................................
.............................. CYCLE    7 ..............................
........................................................................

 iter      E             dE          RMSdq      gap      omega  full diag
   1  -3476.1485693 -0.347615E+04  0.251E-02   10.80       0.0  T
   2  -3476.1489713 -0.402052E-03  0.132E-02   10.79       1.0  T
   3  -3476.1489786 -0.728997E-05  0.546E-03   10.79       1.0  T
   4  -3476.1489806 -0.193089E-05  0.864E-04   10.79       2.0  T
   5  -3476.1489809 -0.330119E-06  0.531E-04   10.79       3.3  T
   6  -3476.1489810 -0.149270E-06  0.181E-04   10.79       9.7  T
     SCC iter.                  ...        5 min, 51.352 sec
     gradient                   ...        3 min, 42.294 sec
 * total energy  : -3427.3125694 Eh     change    :  -0.5780466E-01 Eh
   gradient norm :     0.2428045 Eh/a0  converged?    E=F G=F D=F
   time step     :     0.3025000 fs     power     :   0.1904804E-05
   step length   :     0.2783887 a0     speed     :   0.2226083E-01

........................................................................
.............................. CYCLE    8 ..............................
........................................................................

 iter      E             dE          RMSdq      gap      omega  full diag
   1  -3477.1159491 -0.347712E+04  0.276E-02   10.79       0.0  T
   2  -3477.1163349 -0.385817E-03  0.147E-02   10.79       1.0  T
   3  -3477.1163448 -0.997311E-05  0.538E-03   10.79       1.0  T
   4  -3477.1163470 -0.218760E-05  0.973E-04   10.79       1.8  T
   5  -3477.1163473 -0.297809E-06  0.580E-04   10.79       3.0  T
   6  -3477.1163475 -0.136217E-06  0.164E-04   10.79      10.7  T
     SCC iter.                  ...        5 min, 56.405 sec
     gradient                   ...        3 min, 41.884 sec
 * total energy  : -3427.3532640 Eh     change    :  -0.4069460E-01 Eh
   gradient norm :     0.2361340 Eh/a0  converged?    E=F G=F D=F
   time step     :     0.3327500 fs     power     :   0.9852368E-06
   step length   :     0.3145472 a0     speed     :   0.2286562E-01

........................................................................
.............................. CYCLE    9 ..............................
........................................................................

 iter      E             dE          RMSdq      gap      omega  full diag
   1  -3478.0997880 -0.347810E+04  0.294E-02   10.79       0.0  T
   2  -3478.1000638 -0.275823E-03  0.161E-02   10.79       1.0  T
   3  -3478.1000761 -0.123190E-04  0.453E-03   10.79       1.0  T
   4  -3478.1000781 -0.198455E-05  0.103E-03   10.79       1.7  T
   5  -3478.1000783 -0.186893E-06  0.580E-04   10.79       3.0  T
   6  -3478.1000784 -0.968880E-07  0.121E-04   10.79      14.5  T
     SCC iter.                  ...        6 min,  2.254 sec
     gradient                   ...        3 min, 43.398 sec
 * total energy  : -3427.3772337 Eh     change    :  -0.2396975E-01 Eh
   gradient norm :     0.2489412 Eh/a0  converged?    E=F G=F D=F
   time step     :     0.3660250 fs     power     :   0.3015937E-06
   step length   :     0.3387529 a0     speed     :   0.2238656E-01

........................................................................
.............................. CYCLE   10 ..............................
........................................................................

 iter      E             dE          RMSdq      gap      omega  full diag
   1  -3479.0056567 -0.347901E+04  0.316E-02   10.78       0.0  T
   2  -3479.0057884 -0.131650E-03  0.179E-02   10.78       1.0  T
   3  -3479.0058019 -0.135630E-04  0.292E-03   10.78       1.0  T
   4  -3479.0058034 -0.146066E-05  0.104E-03   10.78       1.7  T
   5  -3479.0058034 -0.602722E-07  0.513E-04   10.78       3.4  T
   6  -3479.0058035 -0.607702E-07  0.625E-05   10.78      28.0  T
     SCC iter.                  ...        5 min, 56.032 sec
     gradient                   ...        3 min, 43.396 sec
 * total energy  : -3427.3888780 Eh     change    :  -0.1164430E-01 Eh
   gradient norm :     0.2479027 Eh/a0  converged?    E=F G=F D=F
   time step     :     0.4026275 fs     power     :  -0.1120309E-06
   step length   :     0.3518122 a0     speed     :   0.2113599E-01

........................................................................
.............................. CYCLE   11 ..............................
........................................................................
 * reset velocities

 iter      E             dE          RMSdq      gap      omega  full diag
   1  -3478.9888586 -0.347899E+04  0.115E-03   10.78       0.0  T
   2  -3478.9888594 -0.763186E-06  0.663E-04   10.78       2.6  T
   3  -3478.9888594 -0.382988E-08  0.261E-04   10.78       6.7  T
     SCC iter.                  ...        2 min, 57.736 sec
     gradient                   ...        3 min, 42.814 sec
 * total energy  : -3427.3911800 Eh     change    :  -0.2302035E-02 Eh
   gradient norm :     0.2408746 Eh/a0  converged?    E=F G=F D=F
   time step     :     0.2013138 fs     power     :   0.1495559E-06
   step length   :     0.0094197 a0     speed     :   0.1131826E-02

........................................................................
.............................. CYCLE   12 ..............................
........................................................................

 iter      E             dE          RMSdq      gap      omega  full diag
   1  -3478.9554015 -0.347896E+04  0.227E-03   10.78       0.0  T
   2  -3478.9554044 -0.295234E-05  0.131E-03   10.78       1.3  T
   3  -3478.9554044 -0.176692E-07  0.515E-04   10.78       3.4  T
   4  -3478.9554044 -0.886939E-08  0.438E-05   10.78      40.0  T
     SCC iter.                  ...        3 min, 56.238 sec
     gradient                   ...        3 min, 42.881 sec
 * total energy  : -3427.3955256 Eh     change    :  -0.4345592E-02 Eh
   gradient norm :     0.2271008 Eh/a0  converged?    E=F G=F D=F
   time step     :     0.2013138 fs     power     :   0.2779851E-06
   step length   :     0.0185723 a0     speed     :   0.2231555E-02

........................................................................
.............................. CYCLE   13 ..............................
........................................................................

 iter      E             dE          RMSdq      gap      omega  full diag
   1  -3478.9062910 -0.347891E+04  0.332E-03   10.78       0.0  T
   2  -3478.9062973 -0.639003E-05  0.191E-03   10.78       1.0  T
   3  -3478.9062974 -0.428422E-07  0.759E-04   10.78       2.3  T
   4  -3478.9062974 -0.226601E-07  0.717E-05   10.78      24.4  T
     SCC iter.                  ...        3 min, 59.003 sec
     gradient                   ...        3 min, 47.241 sec
 * total energy  : -3427.4014289 Eh     change    :  -0.5903301E-02 Eh
   gradient norm :     0.2070237 Eh/a0  converged?    E=F G=F D=F
   time step     :     0.2013138 fs     power     :   0.3710275E-06
   step length   :     0.0272009 a0     speed     :   0.3268328E-02

........................................................................
.............................. CYCLE   14 ..............................
........................................................................

 iter      E             dE          RMSdq      gap      omega  full diag
   1  -3478.8428134 -0.347884E+04  0.427E-03   10.78       0.0  T
   2  -3478.8428240 -0.106287E-04  0.246E-03   10.78       1.0  T
   3  -3478.8428241 -0.737978E-07  0.979E-04   10.78       1.8  T
   4  -3478.8428241 -0.397422E-07  0.953E-05   10.78      18.4  T
     SCC iter.                  ...        3 min, 57.516 sec
     gradient                   ...        3 min, 41.304 sec
 * total energy  : -3427.4082338 Eh     change    :  -0.6804864E-02 Eh
   gradient norm :     0.1813676 Eh/a0  converged?    E=F G=F D=F
   time step     :     0.2013138 fs     power     :   0.4186217E-06
   step length   :     0.0350643 a0     speed     :   0.4213149E-02

........................................................................
.............................. CYCLE   15 ..............................
........................................................................

 iter      E             dE          RMSdq      gap      omega  full diag
   1  -3478.7666781 -0.347877E+04  0.509E-03   10.78       0.0  T
   2  -3478.7666933 -0.152055E-04  0.293E-03   10.78       1.0  T
   3  -3478.7666934 -0.107104E-06  0.117E-03   10.78       1.5  T
   4  -3478.7666935 -0.579462E-07  0.116E-04   10.78      15.2  T
   5  -3478.7666935 -0.157297E-07  0.784E-05   10.78      22.4  T
     SCC iter.                  ...        4 min, 55.882 sec
     gradient                   ...        3 min, 42.628 sec
 * total energy  : -3427.4151920 Eh     change    :  -0.6958213E-02 Eh
   gradient norm :     0.1511109 Eh/a0  converged?    E=F G=F D=F
   time step     :     0.2013138 fs     power     :   0.4160866E-06
   step length   :     0.0419453 a0     speed     :   0.5039937E-02

........................................................................
.............................. CYCLE   16 ..............................
........................................................................

 iter      E             dE          RMSdq      gap      omega  full diag
   1  -3478.6800319 -0.347868E+04  0.575E-03   10.78       0.0  T
   2  -3478.6800515 -0.195671E-04  0.331E-03   10.78       1.0  T
   3  -3478.6800516 -0.127457E-06  0.133E-03   10.78       1.3  T
   4  -3478.6800517 -0.666682E-07  0.124E-04   10.78      14.2  T
   5  -3478.6800517 -0.184200E-07  0.814E-05   10.78      21.5  T
     SCC iter.                  ...        4 min, 53.434 sec
     gradient                   ...        3 min, 43.244 sec
 * total energy  : -3427.4215530 Eh     change    :  -0.6361007E-02 Eh
   gradient norm :     0.1176692 Eh/a0  converged?    E=F G=F D=F
   time step     :     0.2013138 fs     power     :   0.3649036E-06
   step length   :     0.0476550 a0     speed     :   0.5725989E-02

........................................................................
.............................. CYCLE   17 ..............................
........................................................................

 iter      E             dE          RMSdq      gap      omega  full diag
   1  -3478.5751551 -0.347858E+04  0.690E-03   10.78       0.0  T
   2  -3478.5751835 -0.284753E-04  0.397E-03   10.78       1.0  T
   3  -3478.5751837 -0.180175E-06  0.160E-03   10.78       1.1  T
   4  -3478.5751838 -0.931554E-07  0.146E-04   10.78      12.0  T
   5  -3478.5751838 -0.261161E-07  0.946E-05   10.78      18.5  T
     SCC iter.                  ...        5 min,  2.765 sec
     gradient                   ...        3 min, 43.136 sec
 * total energy  : -3427.4271002 Eh     change    :  -0.5547164E-02 Eh
   gradient norm :     0.0797621 Eh/a0  converged?    E=F G=F D=F
   time step     :     0.2214451 fs     power     :   0.2610438E-06
   step length   :     0.0577197 a0     speed     :   0.6304824E-02

........................................................................
.............................. CYCLE   18 ..............................
........................................................................

 iter      E             dE          RMSdq      gap      omega  full diag
   1  -3478.4535857 -0.347845E+04  0.791E-03   10.78       0.0  T
   2  -3478.4536237 -0.380364E-04  0.455E-03   10.78       1.0  T
   3  -3478.4536240 -0.237763E-06  0.186E-03   10.78       1.0  T
   4  -3478.4536241 -0.120812E-06  0.167E-04   10.78      10.5  T
   5  -3478.4536241 -0.344803E-07  0.106E-04   10.78      16.5  T
     SCC iter.                  ...        4 min, 53.836 sec
     gradient                   ...        3 min, 42.986 sec
 * total energy  : -3427.4307015 Eh     change    :  -0.3601269E-02 Eh
   gradient norm :     0.0467864 Eh/a0  converged?    E=F G=F D=F
   time step     :     0.2435896 fs     power     :   0.1102955E-06
   step length   :     0.0674418 a0     speed     :   0.6697084E-02

........................................................................
.............................. CYCLE   19 ..............................
........................................................................

 iter      E             dE          RMSdq      gap      omega  full diag
   1  -3478.3248052 -0.347832E+04  0.828E-03   10.78       0.0  T
   2  -3478.3248478 -0.426495E-04  0.479E-03   10.78       1.0  T
   3  -3478.3248481 -0.268261E-06  0.197E-03   10.78       1.0  T
   4  -3478.3248482 -0.131128E-06  0.176E-04   10.78       9.9  T
   5  -3478.3248482 -0.385321E-07  0.108E-04   10.78      16.3  T
     SCC iter.                  ...        4 min, 58.661 sec
     gradient                   ...        3 min, 43.055 sec
 * total energy  : -3427.4314459 Eh     change    :  -0.7444265E-03 Eh
   gradient norm :     0.0531932 Eh/a0  converged?    E=F G=F D=F
   time step     :     0.2679486 fs     power     :  -0.5015507E-07
   step length   :     0.0740342 a0     speed     :   0.6683377E-02

........................................................................
.............................. CYCLE   20 ..............................
........................................................................
 * reset velocities

 iter      E             dE          RMSdq      gap      omega  full diag
   1  -3478.3259811 -0.347833E+04  0.116E-04   10.78       0.0  T
   2  -3478.3259811 -0.519140E-08  0.740E-05   10.78      23.7  T
   3  -3478.3259811 -0.275486E-08  0.316E-05   10.78      55.4  T
     SCC iter.                  ...        2 min, 56.648 sec
     gradient                   ...        3 min, 43.985 sec
 * total energy  : -3427.4314933 Eh     change    :  -0.4745644E-04 Eh
   gradient norm :     0.0528266 Eh/a0  converged?    E=F G=F D=T
   time step     :     0.1339743 fs     power     :   0.4683658E-08
   step length   :     0.0008952 a0     speed     :   0.1616228E-03
 * RMSD in coord.:     0.0348593 a0     energy gain  -0.5765414E+00 Eh

........................................................................
.............................. CYCLE   21 ..............................
........................................................................

 iter      E             dE          RMSdq      gap      omega  full diag
   1  -3478.3319740 -0.347833E+04  0.542E-04   10.78       0.0  T
   2  -3478.3319740 -0.846007E-07  0.309E-04   10.78       5.7  T
   3  -3478.3319740 -0.602995E-09  0.844E-05   10.78      20.8  T
     SCC iter.                  ...        2 min, 59.760 sec
     gradient                   ...        3 min, 41.761 sec
 * total energy  : -3427.4317408 Eh     change    :  -0.2474326E-03 Eh
   gradient norm :     0.0510331 Eh/a0  converged?    E=F G=F D=F
   time step     :     0.2500000 fs     power     :   0.1290137E-07
   step length   :     0.0047660 a0     speed     :   0.4611346E-03

........................................................................
.............................. CYCLE   22 ..............................
........................................................................

 iter      E             dE          RMSdq      gap      omega  full diag
   1  -3478.3415506 -0.347834E+04  0.881E-04   10.78       0.0  T
   2  -3478.3415508 -0.216676E-06  0.503E-04   10.78       3.5  T
   3  -3478.3415508 -0.359660E-08  0.136E-04   10.78      12.9  T
     SCC iter.                  ...        2 min, 56.319 sec
     gradient                   ...        3 min, 42.936 sec
 * total energy  : -3427.4321254 Eh     change    :  -0.3846716E-03 Eh
   gradient norm :     0.0483054 Eh/a0  converged?    E=F G=F D=F
   time step     :     0.2500000 fs     power     :   0.1982178E-07
   step length   :     0.0077552 a0     speed     :   0.7503591E-03

........................................................................
.............................. CYCLE   23 ..............................
........................................................................

 iter      E             dE          RMSdq      gap      omega  full diag
   1  -3478.3542226 -0.347835E+04  0.118E-03   10.78       0.0  T
   2  -3478.3542230 -0.378725E-06  0.676E-04   10.78       2.6  T
   3  -3478.3542230 -0.840191E-08  0.180E-04   10.78       9.7  T
     SCC iter.                  ...        3 min,  4.984 sec
     gradient                   ...        3 min, 44.946 sec
 * total energy  : -3427.4326163 Eh     change    :  -0.4908662E-03 Eh
   gradient norm :     0.0449790 Eh/a0  converged?    E=F G=F D=F
   time step     :     0.2500000 fs     power     :   0.2500573E-07
   step length   :     0.0105784 a0     speed     :   0.1023519E-02

........................................................................
.............................. CYCLE   24 ..............................
........................................................................

 iter      E             dE          RMSdq      gap      omega  full diag
   1  -3478.3693050 -0.347837E+04  0.144E-03   10.79       0.0  T
   2  -3478.3693055 -0.532519E-06  0.823E-04   10.78       2.1  T
   3  -3478.3693055 -0.142413E-07  0.213E-04   10.78       8.2  T
     SCC iter.                  ...        2 min, 58.056 sec
     gradient                   ...        3 min, 44.592 sec
 * total energy  : -3427.4331787 Eh     change    :  -0.5623465E-03 Eh
   gradient norm :     0.0415273 Eh/a0  converged?    E=F G=F D=F
   time step     :     0.2500000 fs     power     :   0.2834893E-07
   step length   :     0.0131879 a0     speed     :   0.1275996E-02

........................................................................
.............................. CYCLE   25 ..............................
........................................................................

 iter      E             dE          RMSdq      gap      omega  full diag
   1  -3478.3859175 -0.347839E+04  0.164E-03   10.79       0.0  T
   2  -3478.3859181 -0.637573E-06  0.937E-04   10.78       1.9  T
   3  -3478.3859182 -0.201112E-07  0.232E-04   10.78       7.6  T
     SCC iter.                  ...        2 min, 56.206 sec
     gradient                   ...        3 min, 44.010 sec
 * total energy  : -3427.4337811 Eh     change    :  -0.6024103E-03 Eh
   gradient norm :     0.0385095 Eh/a0  converged?    E=F G=F D=F
   time step     :     0.2500000 fs     power     :   0.3012400E-07
   step length   :     0.0155506 a0     speed     :   0.1504602E-02

........................................................................
.............................. CYCLE   26 ..............................
........................................................................

 iter      E             dE          RMSdq      gap      omega  full diag
   1  -3478.4048494 -0.347840E+04  0.196E-03   10.79       0.0  T
   2  -3478.4048502 -0.809196E-06  0.112E-03   10.79       1.6  T
   3  -3478.4048502 -0.295231E-07  0.258E-04   10.78       6.8  T
   4  -3478.4048502 -0.122000E-07  0.630E-05   10.78      27.8  T
     SCC iter.                  ...        3 min, 53.324 sec
     gradient                   ...        3 min, 43.879 sec
 * total energy  : -3427.4344685 Eh     change    :  -0.6873954E-03 Eh
   gradient norm :     0.0362714 Eh/a0  converged?    E=F G=F D=F
   time step     :     0.2750000 fs     power     :   0.3094360E-07
   step length   :     0.0196551 a0     speed     :   0.1728855E-02

........................................................................
.............................. CYCLE   27 ..............................
........................................................................

 iter      E             dE          RMSdq      gap      omega  full diag
   1  -3478.4248028 -0.347842E+04  0.224E-03   10.79       0.0  T
   2  -3478.4248037 -0.875551E-06  0.129E-03   10.79       1.4  T
   3  -3478.4248037 -0.364998E-07  0.265E-04   10.78       6.6  T
   4  -3478.4248037 -0.154541E-07  0.695E-05   10.78      25.2  T
     SCC iter.                  ...        3 min, 56.784 sec
     gradient                   ...        3 min, 43.453 sec
 * total energy  : -3427.4352413 Eh     change    :  -0.7728727E-03 Eh
   gradient norm :     0.0354194 Eh/a0  converged?    E=F G=F D=F
   time step     :     0.3025000 fs     power     :   0.3154244E-07
   step length   :     0.0243133 a0     speed     :   0.1944167E-02

........................................................................
.............................. CYCLE   28 ..............................
........................................................................

 iter      E             dE          RMSdq      gap      omega  full diag
   1  -3478.4436413 -0.347844E+04  0.245E-03   10.79       0.0  T
   2  -3478.4436420 -0.734668E-06  0.141E-03   10.78       1.2  T
   3  -3478.4436421 -0.447258E-07  0.236E-04   10.78       7.4  T
   4  -3478.4436421 -0.179925E-07  0.755E-05   10.78      23.2  T
     SCC iter.                  ...        3 min, 55.307 sec
     gradient                   ...        3 min, 44.042 sec
 * total energy  : -3427.4361246 Eh     change    :  -0.8832603E-03 Eh
   gradient norm :     0.0358676 Eh/a0  converged?    E=F G=F D=F
   time step     :     0.3327500 fs     power     :   0.3307848E-07
   step length   :     0.0295860 a0     speed     :   0.2150716E-02

........................................................................
.............................. CYCLE   29 ..............................
........................................................................

 iter      E             dE          RMSdq      gap      omega  full diag
   1  -3478.4586502 -0.347846E+04  0.259E-03   10.79       0.0  T
   2  -3478.4586506 -0.441669E-06  0.150E-03   10.78       1.2  T
   3  -3478.4586507 -0.501191E-07  0.182E-04   10.78       9.7  T
   4  -3478.4586507 -0.200503E-07  0.781E-05   10.78      22.4  T
     SCC iter.                  ...        3 min, 56.720 sec
     gradient                   ...        3 min, 42.738 sec
 * total energy  : -3427.4371763 Eh     change    :  -0.1051699E-02 Eh
   gradient norm :     0.0365189 Eh/a0  converged?    E=F G=F D=F
   time step     :     0.3660250 fs     power     :   0.3640120E-07
   step length   :     0.0356982 a0     speed     :   0.2359126E-02

........................................................................
.............................. CYCLE   30 ..............................
........................................................................

 iter      E             dE          RMSdq      gap      omega  full diag
   1  -3478.4671267 -0.347847E+04  0.272E-03   10.78       0.0  T
   2  -3478.4671270 -0.245429E-06  0.159E-03   10.78       1.1  T
   3  -3478.4671270 -0.505647E-07  0.145E-04   10.78      12.1  T
   4  -3478.4671270 -0.231080E-07  0.771E-05   10.78      22.7  T
     SCC iter.                  ...        4 min,  0.140 sec
     gradient                   ...        3 min, 44.780 sec
 * total energy  : -3427.4384696 Eh     change    :  -0.1293318E-02 Eh
   gradient norm :     0.0358288 Eh/a0  converged?    E=F G=F D=F
   time step     :     0.4026275 fs     power     :   0.4111202E-07
   step length   :     0.0430885 a0     speed     :   0.2588650E-02

........................................................................
.............................. CYCLE   31 ..............................
........................................................................

 iter      E             dE          RMSdq      gap      omega  full diag
   1  -3478.4672527 -0.347847E+04  0.297E-03   10.78       0.0  T
   2  -3478.4672533 -0.522517E-06  0.176E-03   10.78       1.0  T
   3  -3478.4672533 -0.480636E-07  0.167E-04   10.78      10.5  T
   4  -3478.4672533 -0.269761E-07  0.709E-05   10.78      24.7  T
     SCC iter.                  ...        3 min, 54.160 sec
     gradient                   ...        3 min, 43.144 sec
 * total energy  : -3427.4400429 Eh     change    :  -0.1573252E-02 Eh
   gradient norm :     0.0327738 Eh/a0  converged?    E=F G=F D=F
   time step     :     0.4428903 fs     power     :   0.4515424E-07
   step length   :     0.0522668 a0     speed     :   0.2854596E-02

........................................................................
.............................. CYCLE   32 ..............................
........................................................................

 iter      E             dE          RMSdq      gap      omega  full diag
   1  -3478.4595873 -0.347846E+04  0.342E-03   10.78       0.0  T
   2  -3478.4595888 -0.144764E-05  0.205E-03   10.78       1.0  T
   3  -3478.4595888 -0.549676E-07  0.271E-04   10.78       6.5  T
   4  -3478.4595889 -0.300938E-07  0.721E-05   10.78      24.3  T
     SCC iter.                  ...        3 min, 59.834 sec
     gradient                   ...        3 min, 42.541 sec
 * total energy  : -3427.4418425 Eh     change    :  -0.1799665E-02 Eh
   gradient norm :     0.0281091 Eh/a0  converged?    E=F G=F D=F
   time step     :     0.4871793 fs     power     :   0.4578584E-07
   step length   :     0.0635471 a0     speed     :   0.3155163E-02

........................................................................
.............................. CYCLE   33 ..............................
........................................................................

 iter      E             dE          RMSdq      gap      omega  full diag
   1  -3478.4494036 -0.347845E+04  0.395E-03   10.78       0.0  T
   2  -3478.4494059 -0.234375E-05  0.238E-03   10.78       1.0  T
   3  -3478.4494060 -0.670034E-07  0.350E-04   10.78       5.0  T
   4  -3478.4494060 -0.328755E-07  0.758E-05   10.78      23.1  T
     SCC iter.                  ...        3 min, 53.076 sec
     gradient                   ...        3 min, 43.540 sec
 * total energy  : -3427.4437357 Eh     change    :  -0.1893225E-02 Eh
   gradient norm :     0.0253336 Eh/a0  converged?    E=F G=F D=F
   time step     :     0.5358972 fs     power     :   0.4243215E-07
   step length   :     0.0767884 a0     speed     :   0.3466004E-02

........................................................................
.............................. CYCLE   34 ..............................
........................................................................

 iter      E             dE          RMSdq      gap      omega  full diag
   1  -3478.4487293 -0.347845E+04  0.440E-03   10.78       0.0  T
   2  -3478.4487310 -0.178008E-05  0.264E-03   10.78       1.0  T
   3  -3478.4487311 -0.826867E-07  0.256E-04   10.78       6.8  T
   4  -3478.4487312 -0.323998E-07  0.793E-05   10.78      22.1  T
     SCC iter.                  ...        3 min, 55.334 sec
     gradient                   ...        3 min, 42.060 sec
 * total energy  : -3427.4456639 Eh     change    :  -0.1928198E-02 Eh
   gradient norm :     0.0263959 Eh/a0  converged?    E=F G=F D=F
   time step     :     0.5894869 fs     power     :   0.3913754E-07
   step length   :     0.0911269 a0     speed     :   0.3739275E-02

........................................................................
.............................. CYCLE   35 ..............................
........................................................................

 iter      E             dE          RMSdq      gap      omega  full diag
   1  -3478.4712736 -0.347847E+04  0.496E-03   10.79       0.0  T
   2  -3478.4712740 -0.419466E-06  0.294E-03   10.79       1.0  T
   3  -3478.4712741 -0.115477E-06  0.155E-04   10.78      11.3  T
   4  -3478.4712741 -0.216241E-07  0.879E-05   10.78      19.9  T
     SCC iter.                  ...        3 min, 56.160 sec
     gradient                   ...        3 min, 45.491 sec
 * total energy  : -3427.4477515 Eh     change    :  -0.2087528E-02 Eh
   gradient norm :     0.0261851 Eh/a0  converged?    E=F G=F D=F
   time step     :     0.6484356 fs     power     :   0.3929600E-07
   step length   :     0.1060879 a0     speed     :   0.3957436E-02

........................................................................
.............................. CYCLE   36 ..............................
........................................................................

 iter      E             dE          RMSdq      gap      omega  full diag
   1  -3478.5231235 -0.347852E+04  0.597E-03   10.79       0.0  T
   2  -3478.5231247 -0.126075E-05  0.345E-03   10.79       1.0  T
   3  -3478.5231249 -0.157403E-06  0.242E-04   10.79       7.2  T
   4  -3478.5231249 -0.211735E-07  0.103E-04   10.79      17.0  T
     SCC iter.                  ...        3 min, 59.034 sec
     gradient                   ...        3 min, 45.647 sec
 * total energy  : -3427.4500496 Eh     change    :  -0.2298160E-02 Eh
   gradient norm :     0.0219310 Eh/a0  converged?    E=F G=F D=F
   time step     :     0.7132792 fs     power     :   0.3851374E-07
   step length   :     0.1232030 a0     speed     :   0.4178081E-02

........................................................................
.............................. CYCLE   37 ..............................
........................................................................

 iter      E             dE          RMSdq      gap      omega  full diag
   1  -3478.5929857 -0.347859E+04  0.682E-03   10.79       0.0  T
   2  -3478.5929890 -0.322013E-05  0.391E-03   10.79       1.0  T
   3  -3478.5929891 -0.174068E-06  0.417E-04   10.79       4.2  T
   4  -3478.5929892 -0.338046E-07  0.111E-04   10.79      15.8  T
     SCC iter.                  ...        3 min, 57.858 sec
     gradient                   ...        3 min, 42.391 sec
 * total energy  : -3427.4523421 Eh     change    :  -0.2292484E-02 Eh
   gradient norm :     0.0214798 Eh/a0  converged?    E=F G=F D=F
   time step     :     0.7846071 fs     power     :   0.3324677E-07
   step length   :     0.1432736 a0     speed     :   0.4417016E-02

........................................................................
.............................. CYCLE   38 ..............................
........................................................................

 iter      E             dE          RMSdq      gap      omega  full diag
   1  -3478.6454750 -0.347865E+04  0.645E-03   10.79       0.0  T
   2  -3478.6454759 -0.967403E-06  0.374E-03   10.79       1.0  T
   3  -3478.6454761 -0.150562E-06  0.210E-04   10.79       8.4  T
   4  -3478.6454761 -0.189539E-07  0.909E-05   10.79      19.3  T
     SCC iter.                  ...        3 min, 52.743 sec
     gradient                   ...        3 min, 43.801 sec
 * total energy  : -3427.4546876 Eh     change    :  -0.2345492E-02 Eh
   gradient norm :     0.0238972 Eh/a0  converged?    E=F G=F D=F
   time step     :     0.8630678 fs     power     :   0.3223274E-07
   step length   :     0.1636624 a0     speed     :   0.4586897E-02

........................................................................
.............................. CYCLE   39 ..............................
........................................................................

 iter      E             dE          RMSdq      gap      omega  full diag
   1  -3478.6557506 -0.347866E+04  0.596E-03   10.79       0.0  T
   2  -3478.6557526 -0.197333E-05  0.357E-03   10.79       1.0  T
   3  -3478.6557527 -0.176149E-06  0.232E-04   10.79       7.5  T
   4  -3478.6557528 -0.237574E-07  0.108E-04   10.79      16.2  T
     SCC iter.                  ...        4 min,  0.380 sec
     gradient                   ...        3 min, 42.230 sec
 * total energy  : -3427.4573673 Eh     change    :  -0.2679690E-02 Eh
   gradient norm :     0.0204868 Eh/a0  converged?    E=F G=F D=F
   time step     :     0.9493746 fs     power     :   0.3347713E-07
   step length   :     0.1860220 a0     speed     :   0.4739602E-02

........................................................................
.............................. CYCLE   40 ..............................
........................................................................

 iter      E             dE          RMSdq      gap      omega  full diag
   1  -3478.6409550 -0.347864E+04  0.605E-03   10.80       0.0  T
   2  -3478.6409600 -0.500751E-05  0.364E-03   10.80       1.0  T
   3  -3478.6409603 -0.250276E-06  0.469E-04   10.80       3.7  T
   4  -3478.6409603 -0.517175E-07  0.150E-04   10.80      11.7  T
     SCC iter.                  ...        3 min, 59.761 sec
     gradient                   ...        3 min, 43.787 sec
 * total energy  : -3427.4601954 Eh     change    :  -0.2828092E-02 Eh
   gradient norm :     0.0227879 Eh/a0  converged?    E=F G=F D=F
   time step     :     1.0443120 fs     power     :   0.3120806E-07
   step length   :     0.2133226 a0     speed     :   0.4941078E-02

........................................................................
.............................. CYCLE   41 ..............................
........................................................................

 iter      E             dE          RMSdq      gap      omega  full diag
   1  -3478.6575604 -0.347866E+04  0.674E-03   10.80       0.0  T
   2  -3478.6575612 -0.818714E-06  0.395E-03   10.80       1.0  T
   3  -3478.6575615 -0.242217E-06  0.228E-04   10.80       7.7  T
   4  -3478.6575615 -0.297728E-07  0.134E-04   10.80      13.1  T
     SCC iter.                  ...        3 min, 58.530 sec
     gradient                   ...        3 min, 43.653 sec
 * total energy  : -3427.4635017 Eh     change    :  -0.3306313E-02 Eh
   gradient norm :     0.0208503 Eh/a0  converged?    E=F G=F D=F
   time step     :     1.1487432 fs     power     :   0.3512681E-07
   step length   :     0.2425348 a0     speed     :   0.5107004E-02

........................................................................
.............................. CYCLE   42 ..............................
........................................................................

 iter      E             dE          RMSdq      gap      omega  full diag
   1  -3478.7036227 -0.347870E+04  0.834E-03   10.81       0.0  T
   2  -3478.7036266 -0.393156E-05  0.483E-03   10.81       1.0  T
   3  -3478.7036268 -0.235936E-06  0.410E-04   10.81       4.3  T
   4  -3478.7036269 -0.393593E-07  0.119E-04   10.81      14.7  T
     SCC iter.                  ...        4 min,  4.432 sec
     gradient                   ...        3 min, 44.145 sec
 * total energy  : -3427.4671307 Eh     change    :  -0.3628960E-02 Eh
   gradient norm :     0.0211919 Eh/a0  converged?    E=F G=F D=F
   time step     :     1.2500000 fs     power     :   0.3317923E-07
   step length   :     0.2765859 a0     speed     :   0.5352234E-02
 * RMSD in coord.:     0.0315612 a0     energy gain  -0.3563733E-01 Eh

........................................................................
.............................. CYCLE   43 ..............................
........................................................................

 iter      E             dE          RMSdq      gap      omega  full diag
   1  -3478.7059896 -0.347871E+04  0.134E-03   10.81       0.0  T
   2  -3478.7059896 -0.343834E-07  0.785E-04   10.81       2.2  T
   3  -3478.7059896 -0.889213E-08  0.475E-05   10.81      36.9  T
     SCC iter.                  ...        3 min,  0.385 sec
     gradient                   ...        3 min, 43.320 sec
 * total energy  : -3427.4678256 Eh     change    :  -0.6949407E-03 Eh
   gradient norm :     0.0211664 Eh/a0  converged?    E=F G=F D=F
   time step     :     0.2500000 fs     power     :   0.3629956E-07
   step length   :     0.0537039 a0     speed     :   0.5196146E-02

........................................................................
.............................. CYCLE   44 ..............................
........................................................................

 iter      E             dE          RMSdq      gap      omega  full diag
   1  -3478.7022362 -0.347870E+04  0.128E-03   10.81       0.0  T
   2  -3478.7022364 -0.160632E-06  0.754E-04   10.81       2.3  T
   3  -3478.7022364 -0.103310E-07  0.846E-05   10.81      20.7  T
     SCC iter.                  ...        3 min,  3.871 sec
     gradient                   ...        3 min, 42.451 sec
 * total energy  : -3427.4685665 Eh     change    :  -0.7408638E-03 Eh
   gradient norm :     0.0195834 Eh/a0  converged?    E=F G=F D=F
   time step     :     0.2500000 fs     power     :   0.3854627E-07
   step length   :     0.0525766 a0     speed     :   0.5087072E-02

........................................................................
.............................. CYCLE   45 ..............................
........................................................................

 iter      E             dE          RMSdq      gap      omega  full diag
   1  -3478.6941211 -0.347869E+04  0.142E-03   10.81       0.0  T
   2  -3478.6941215 -0.394184E-06  0.829E-04   10.81       2.1  T
   3  -3478.6941215 -0.134414E-07  0.159E-04   10.81      11.0  T
     SCC iter.                  ...        3 min,  0.347 sec
     gradient                   ...        3 min, 41.889 sec
 * total energy  : -3427.4693214 Eh     change    :  -0.7549356E-03 Eh
   gradient norm :     0.0174779 Eh/a0  converged?    E=F G=F D=F
   time step     :     0.2500000 fs     power     :   0.3877819E-07
   step length   :     0.0520352 a0     speed     :   0.5034685E-02

........................................................................
.............................. CYCLE   46 ..............................
........................................................................

 iter      E             dE          RMSdq      gap      omega  full diag
   1  -3478.6844942 -0.347868E+04  0.155E-03   10.82       0.0  T
   2  -3478.6844947 -0.512888E-06  0.903E-04   10.82       1.9  T
   3  -3478.6844947 -0.155519E-07  0.186E-04   10.82       9.4  T
     SCC iter.                  ...        2 min, 57.930 sec
     gradient                   ...        3 min, 50.024 sec
 * total energy  : -3427.4700578 Eh     change    :  -0.7363702E-03 Eh
   gradient norm :     0.0163534 Eh/a0  converged?    E=F G=F D=F
   time step     :     0.2500000 fs     power     :   0.3747706E-07
   step length   :     0.0519670 a0     speed     :   0.5028089E-02

........................................................................
.............................. CYCLE   47 ..............................
........................................................................

 iter      E             dE          RMSdq      gap      omega  full diag
   1  -3478.6768958 -0.347868E+04  0.156E-03   10.82       0.0  T
   2  -3478.6768962 -0.385560E-06  0.911E-04   10.82       1.9  T
   3  -3478.6768962 -0.146802E-07  0.150E-04   10.82      11.7  T
     SCC iter.                  ...        2 min, 58.781 sec
     gradient                   ...        3 min, 44.042 sec
 * total energy  : -3427.4707677 Eh     change    :  -0.7098994E-03 Eh
   gradient norm :     0.0166106 Eh/a0  converged?    E=F G=F D=F
   time step     :     0.2500000 fs     power     :   0.3627170E-07
   step length   :     0.0519971 a0     speed     :   0.5030994E-02

........................................................................
.............................. CYCLE   48 ..............................
........................................................................

 iter      E             dE          RMSdq      gap      omega  full diag
   1  -3478.6738377 -0.347867E+04  0.165E-03   10.82       0.0  T
   2  -3478.6738379 -0.184111E-06  0.967E-04   10.82       1.8  T
   3  -3478.6738379 -0.141486E-07  0.848E-05   10.82      20.7  T
     SCC iter.                  ...        3 min,  2.760 sec
     gradient                   ...        3 min, 42.380 sec
 * total energy  : -3427.4715367 Eh     change    :  -0.7690708E-03 Eh
   gradient norm :     0.0170746 Eh/a0  converged?    E=F G=F D=F
   time step     :     0.2750000 fs     power     :   0.3604225E-07
   step length   :     0.0570904 a0     speed     :   0.5021640E-02

........................................................................
.............................. CYCLE   49 ..............................
........................................................................

 iter      E             dE          RMSdq      gap      omega  full diag
   1  -3478.6777382 -0.347868E+04  0.180E-03   10.82       0.0  T
   2  -3478.6777382 -0.575797E-07  0.105E-03   10.82       1.7  T
   3  -3478.6777383 -0.151331E-07  0.543E-05   10.82      32.3  T
   4  -3478.6777383 -0.326372E-08  0.276E-05   10.82      63.6  T
     SCC iter.                  ...        3 min, 56.211 sec
     gradient                   ...        3 min, 43.174 sec
 * total energy  : -3427.4723865 Eh     change    :  -0.8497630E-03 Eh
   gradient norm :     0.0164110 Eh/a0  converged?    E=F G=F D=F
   time step     :     0.3025000 fs     power     :   0.3632271E-07
   step length   :     0.0626635 a0     speed     :   0.5010765E-02

........................................................................
.............................. CYCLE   50 ..............................
........................................................................

 iter      E             dE          RMSdq      gap      omega  full diag
   1  -3478.6892632 -0.347869E+04  0.206E-03   10.82       0.0  T
   2  -3478.6892634 -0.206859E-06  0.120E-03   10.82       1.5  T
   3  -3478.6892634 -0.192163E-07  0.916E-05   10.82      19.1  T
   4  -3478.6892634 -0.445516E-08  0.341E-05   10.82      51.4  T
     SCC iter.                  ...        3 min, 55.304 sec
     gradient                   ...        3 min, 45.123 sec
 * total energy  : -3427.4733136 Eh     change    :  -0.9271259E-03 Eh
   gradient norm :     0.0145453 Eh/a0  converged?    E=F G=F D=F
   time step     :     0.3327500 fs     power     :   0.3565301E-07
   step length   :     0.0691676 a0     speed     :   0.5028055E-02

........................................................................
.............................. CYCLE   51 ..............................
........................................................................

 iter      E             dE          RMSdq      gap      omega  full diag
   1  -3478.7060684 -0.347871E+04  0.233E-03   10.82       0.0  T
   2  -3478.7060689 -0.488983E-06  0.135E-03   10.82       1.3  T
   3  -3478.7060689 -0.251862E-07  0.156E-04   10.82      11.2  T
   4  -3478.7060689 -0.621594E-08  0.428E-05   10.82      41.0  T
     SCC iter.                  ...        3 min, 53.721 sec
     gradient                   ...        3 min, 45.974 sec
 * total energy  : -3427.4742857 Eh     change    :  -0.9720219E-03 Eh
   gradient norm :     0.0134034 Eh/a0  converged?    E=F G=F D=F
   time step     :     0.3660250 fs     power     :   0.3342710E-07
   step length   :     0.0770020 a0     speed     :   0.5088691E-02

........................................................................
.............................. CYCLE   52 ..............................
........................................................................

 iter      E             dE          RMSdq      gap      omega  full diag
   1  -3478.7212399 -0.347872E+04  0.236E-03   10.83       0.0  T
   2  -3478.7212403 -0.393587E-06  0.137E-03   10.83       1.3  T
   3  -3478.7212403 -0.269047E-07  0.132E-04   10.82      13.2  T
   4  -3478.7212403 -0.585214E-08  0.421E-05   10.82      41.7  T
     SCC iter.                  ...        3 min, 54.226 sec
     gradient                   ...        3 min, 46.135 sec
 * total energy  : -3427.4752892 Eh     change    :  -0.1003532E-02 Eh
   gradient norm :     0.0142285 Eh/a0  converged?    E=F G=F D=F
   time step     :     0.4026275 fs     power     :   0.3143479E-07
   step length   :     0.0857765 a0     speed     :   0.5153237E-02

........................................................................
.............................. CYCLE   53 ..............................
........................................................................

 iter      E             dE          RMSdq      gap      omega  full diag
   1  -3478.7270774 -0.347873E+04  0.223E-03   10.83       0.0  T
   2  -3478.7270775 -0.977393E-07  0.131E-03   10.83       1.3  T
   3  -3478.7270775 -0.263226E-07  0.708E-05   10.83      24.8  T
   4  -3478.7270775 -0.441059E-08  0.371E-05   10.83      47.2  T
     SCC iter.                  ...        4 min,  3.996 sec
     gradient                   ...        3 min, 44.404 sec
 * total energy  : -3427.4763643 Eh     change    :  -0.1075116E-02 Eh
   gradient norm :     0.0143800 Eh/a0  converged?    E=F G=F D=F
   time step     :     0.4428903 fs     power     :   0.3103152E-07
   step length   :     0.0947150 a0     speed     :   0.5172945E-02

........................................................................
.............................. CYCLE   54 ..............................
........................................................................

 iter      E             dE          RMSdq      gap      omega  full diag
   1  -3478.7205053 -0.347872E+04  0.229E-03   10.83       0.0  T
   2  -3478.7205057 -0.391025E-06  0.135E-03   10.83       1.3  T
   3  -3478.7205057 -0.337272E-07  0.119E-04   10.83      14.7  T
   4  -3478.7205057 -0.560658E-08  0.463E-05   10.83      37.8  T
     SCC iter.                  ...        3 min, 55.193 sec
     gradient                   ...        3 min, 43.127 sec
 * total energy  : -3427.4775324 Eh     change    :  -0.1168089E-02 Eh
   gradient norm :     0.0128200 Eh/a0  converged?    E=F G=F D=F
   time step     :     0.4871793 fs     power     :   0.3042536E-07
   step length   :     0.1046118 a0     speed     :   0.5194060E-02

........................................................................
.............................. CYCLE   55 ..............................
........................................................................

 iter      E             dE          RMSdq      gap      omega  full diag
   1  -3478.7066043 -0.347871E+04  0.242E-03   10.83       0.0  T
   2  -3478.7066052 -0.893573E-06  0.143E-03   10.83       1.2  T
   3  -3478.7066053 -0.458544E-07  0.220E-04   10.83       8.0  T
   4  -3478.7066053 -0.911814E-08  0.617E-05   10.83      28.4  T
     SCC iter.                  ...        3 min, 55.379 sec
     gradient                   ...        3 min, 42.474 sec
 * total energy  : -3427.4787595 Eh     change    :  -0.1227057E-02 Eh
   gradient norm :     0.0128718 Eh/a0  converged?    E=F G=F D=F
   time step     :     0.5358972 fs     power     :   0.2866827E-07
   step length   :     0.1164207 a0     speed     :   0.5254894E-02

........................................................................
.............................. CYCLE   56 ..............................
........................................................................

 iter      E             dE          RMSdq      gap      omega  full diag
   1  -3478.7000245 -0.347870E+04  0.231E-03   10.84       0.0  T
   2  -3478.7000249 -0.378209E-06  0.136E-03   10.84       1.3  T
   3  -3478.7000249 -0.446944E-07  0.128E-04   10.84      13.6  T
   4  -3478.7000250 -0.738146E-08  0.599E-05   10.84      29.3  T
     SCC iter.                  ...        3 min, 56.330 sec
     gradient                   ...        3 min, 43.466 sec
 * total energy  : -3427.4800707 Eh     change    :  -0.1311248E-02 Eh
   gradient norm :     0.0137801 Eh/a0  converged?    E=F G=F D=F
   time step     :     0.5894869 fs     power     :   0.2836841E-07
   step length   :     0.1290168 a0     speed     :   0.5294042E-02

........................................................................
.............................. CYCLE   57 ..............................
........................................................................

 iter      E             dE          RMSdq      gap      omega  full diag
   1  -3478.7105883 -0.347871E+04  0.264E-03   10.84       0.0  T
   2  -3478.7105885 -0.269455E-06  0.154E-03   10.84       1.1  T
   3  -3478.7105886 -0.343225E-07  0.127E-04   10.84      13.8  T
   4  -3478.7105886 -0.942327E-08  0.523E-05   10.84      33.5  T
     SCC iter.                  ...        3 min, 57.943 sec
     gradient                   ...        3 min, 43.653 sec
 * total energy  : -3427.4815255 Eh     change    :  -0.1454824E-02 Eh
   gradient norm :     0.0123276 Eh/a0  converged?    E=F G=F D=F
   time step     :     0.6484356 fs     power     :   0.2858045E-07
   step length   :     0.1425864 a0     speed     :   0.5318956E-02

........................................................................
.............................. CYCLE   58 ..............................
........................................................................

 iter      E             dE          RMSdq      gap      omega  full diag
   1  -3478.7333552 -0.347873E+04  0.313E-03   10.85       0.0  T
   2  -3478.7333559 -0.716145E-06  0.181E-03   10.85       1.0  T
   3  -3478.7333559 -0.333894E-07  0.205E-04   10.85       8.5  T
   4  -3478.7333560 -0.110163E-07  0.517E-05   10.85      33.9  T
     SCC iter.                  ...        4 min,  0.275 sec
     gradient                   ...        3 min, 41.869 sec
 * total energy  : -3427.4830865 Eh     change    :  -0.1560959E-02 Eh
   gradient norm :     0.0127024 Eh/a0  converged?    E=F G=F D=F
   time step     :     0.7132792 fs     power     :   0.2748484E-07
   step length   :     0.1590705 a0     speed     :   0.5394425E-02

........................................................................
.............................. CYCLE   59 ..............................
........................................................................

 iter      E             dE          RMSdq      gap      omega  full diag
   1  -3478.7474372 -0.347875E+04  0.295E-03   10.85       0.0  T
   2  -3478.7474374 -0.180761E-06  0.174E-03   10.85       1.0  T
   3  -3478.7474374 -0.418900E-07  0.108E-04   10.85      16.2  T
   4  -3478.7474374 -0.833006E-08  0.601E-05   10.85      29.2  T
     SCC iter.                  ...        3 min, 51.806 sec
     gradient                   ...        3 min, 44.190 sec
 * total energy  : -3427.4847984 Eh     change    :  -0.1711925E-02 Eh
   gradient norm :     0.0125290 Eh/a0  converged?    E=F G=F D=F
   time step     :     0.7846071 fs     power     :   0.2793642E-07
   step length   :     0.1768241 a0     speed     :   0.5451354E-02

........................................................................
.............................. CYCLE   60 ..............................
........................................................................

 iter      E             dE          RMSdq      gap      omega  full diag
   1  -3478.7476842 -0.347875E+04  0.314E-03   10.86       0.0  T
   2  -3478.7476854 -0.125068E-05  0.191E-03   10.86       1.0  T
   3  -3478.7476855 -0.599525E-07  0.234E-04   10.86       7.5  T
   4  -3478.7476855 -0.166538E-07  0.774E-05   10.86      22.6  T
     SCC iter.                  ...        3 min, 52.552 sec
     gradient                   ...        3 min, 43.264 sec
 * total energy  : -3427.4866723 Eh     change    :  -0.1873856E-02 Eh
   gradient norm :     0.0113877 Eh/a0  converged?    E=F G=F D=F
   time step     :     0.8630678 fs     power     :   0.2715306E-07
   step length   :     0.1974061 a0     speed     :   0.5532619E-02

........................................................................
.............................. CYCLE   61 ..............................
........................................................................

 iter      E             dE          RMSdq      gap      omega  full diag
   1  -3478.7628452 -0.347876E+04  0.358E-03   10.86       0.0  T
   2  -3478.7628455 -0.373175E-06  0.214E-03   10.86       1.0  T
   3  -3478.7628456 -0.511450E-07  0.120E-04   10.86      14.6  T
   4  -3478.7628456 -0.103855E-07  0.614E-05   10.86      28.5  T
     SCC iter.                  ...        3 min, 52.000 sec
     gradient                   ...        3 min, 42.888 sec
 * total energy  : -3427.4886780 Eh     change    :  -0.2005767E-02 Eh
   gradient norm :     0.0114319 Eh/a0  converged?    E=F G=F D=F
   time step     :     0.9493746 fs     power     :   0.2673235E-07
   step length   :     0.2213342 a0     speed     :   0.5639310E-02

........................................................................
.............................. CYCLE   62 ..............................
........................................................................

 iter      E             dE          RMSdq      gap      omega  full diag
   1  -3478.8051306 -0.347881E+04  0.505E-03   10.87       0.0  T
   2  -3478.8051318 -0.117686E-05  0.292E-03   10.87       1.0  T
   3  -3478.8051318 -0.710320E-07  0.243E-04   10.87       7.2  T
   4  -3478.8051318 -0.136361E-07  0.693E-05   10.87      25.3  T
     SCC iter.                  ...        3 min, 51.646 sec
     gradient                   ...        3 min, 42.328 sec
 * total energy  : -3427.4908129 Eh     change    :  -0.2134837E-02 Eh
   gradient norm :     0.0105413 Eh/a0  converged?    E=F G=F D=F
   time step     :     1.0443120 fs     power     :   0.2507010E-07
   step length   :     0.2480734 a0     speed     :   0.5745991E-02

........................................................................
.............................. CYCLE   63 ..............................
........................................................................

 iter      E             dE          RMSdq      gap      omega  full diag
   1  -3478.8211096 -0.347882E+04  0.480E-03   10.88       0.0  T
   2  -3478.8211103 -0.654857E-06  0.284E-03   10.88       1.0  T
   3  -3478.8211103 -0.635450E-07  0.158E-04   10.88      11.1  T
   4  -3478.8211104 -0.234381E-07  0.681E-05   10.88      25.7  T
     SCC iter.                  ...        3 min, 51.308 sec
     gradient                   ...        3 min, 42.634 sec
 * total energy  : -3427.4930369 Eh     change    :  -0.2224054E-02 Eh
   gradient norm :     0.0094779 Eh/a0  converged?    E=F G=F D=F
   time step     :     1.1487432 fs     power     :   0.2402108E-07
   step length   :     0.2779939 a0     speed     :   0.5853659E-02

........................................................................
.............................. CYCLE   64 ..............................
........................................................................

 iter      E             dE          RMSdq      gap      omega  full diag
   1  -3478.8152116 -0.347882E+04  0.480E-03   10.89       0.0  T
   2  -3478.8152135 -0.189598E-05  0.287E-03   10.89       1.0  T
   3  -3478.8152136 -0.688719E-07  0.251E-04   10.89       7.0  T
   4  -3478.8152136 -0.271698E-07  0.758E-05   10.89      23.1  T
     SCC iter.                  ...        3 min, 50.035 sec
     gradient                   ...        3 min, 42.851 sec
 * total energy  : -3427.4952875 Eh     change    :  -0.2250601E-02 Eh
   gradient norm :     0.0109663 Eh/a0  converged?    E=F G=F D=F
   time step     :     1.2500000 fs     power     :   0.2181747E-07
   step length   :     0.3089886 a0     speed     :   0.5979261E-02

........................................................................
.............................. CYCLE   65 ..............................
........................................................................

 iter      E             dE          RMSdq      gap      omega  full diag
   1  -3478.8534389 -0.347885E+04  0.582E-03   10.90       0.0  T
   2  -3478.8534407 -0.182607E-05  0.337E-03   10.90       1.0  T
   3  -3478.8534408 -0.684995E-07  0.303E-04   10.90       5.8  T
   4  -3478.8534408 -0.285340E-07  0.753E-05   10.90      23.3  T
     SCC iter.                  ...        3 min, 53.108 sec
     gradient                   ...        3 min, 43.421 sec
 * total energy  : -3427.4974169 Eh     change    :  -0.2129410E-02 Eh
   gradient norm :     0.0104421 Eh/a0  converged?    E=F G=F D=F
   time step     :     1.2500000 fs     power     :   0.2033133E-07
   step length   :     0.3102962 a0     speed     :   0.6004564E-02

........................................................................
.............................. CYCLE   66 ..............................
........................................................................

 iter      E             dE          RMSdq      gap      omega  full diag
   1  -3478.8554188 -0.347886E+04  0.436E-03   10.91       0.0  T
   2  -3478.8554201 -0.122216E-05  0.261E-03   10.91       1.0  T
   3  -3478.8554201 -0.686782E-07  0.200E-04   10.91       8.8  T
   4  -3478.8554202 -0.220039E-07  0.802E-05   10.91      21.8  T
     SCC iter.                  ...        3 min, 51.656 sec
     gradient                   ...        3 min, 43.710 sec
 * total energy  : -3427.4994567 Eh     change    :  -0.2039758E-02 Eh
   gradient norm :     0.0089489 Eh/a0  converged?    E=F G=F D=F
   time step     :     1.2500000 fs     power     :   0.2010393E-07
   step length   :     0.3105325 a0     speed     :   0.6009138E-02

[...]
  3011   6 C     3012   6 C                                       1.5260168
  3012   6 C     3013   6 C                                       1.5269826
  3013   6 C     3014   6 C                                       1.5291438
  3014   6 C     3015   6 C                                       1.5264010
  3015   6 C     3016   6 C                                       1.5236745
  3015   6 C     3017   1 H                                       1.0900337
  3015   6 C     3018   1 H                                       1.0931655
  3014   6 C     3019   1 H                                       1.0935731
  3014   6 C     3020   1 H                                       1.0920889
  3013   6 C     3021   1 H                                       1.0930710
  3013   6 C     3022   1 H                                       1.0931906
  3012   6 C     3023   1 H                                       1.0925920
  3012   6 C     3024   1 H                                       1.0909853
  3011   6 C     3025   1 H                                       1.0925817
  3011   6 C     3026   1 H                                       1.0927350
  3010   6 C     3027   1 H                                       1.0932094
  3010   6 C     3028   1 H                                       1.0933580
  3009   6 C     3029   1 H                                       1.0914285
  3009   6 C     3030   1 H                                       1.0925836
  3008   6 C     3031   1 H                                       1.0929401
  3008   6 C     3032   1 H                                       1.0925644
  3007   6 C     3033   1 H                                       1.0929557
  3007   6 C     3034   1 H                                       1.0925965
  3006   6 C     3035   1 H                                       1.0936136
  3006   6 C     3036   1 H                                       1.0925593
  3005   6 C     3037   1 H                                       1.0928459
  3005   6 C     3038   1 H                                       1.0927294
  3004   6 C     3039   1 H                                       1.0923428
  3004   6 C     3040   1 H                                       1.0922937
  3003   6 C     3041   1 H                                       1.0928206
  3003   6 C     3042   1 H                                       1.0928381
  3002   6 C     3043   1 H                                       1.0933401
  3002   6 C     3044   1 H                                       1.0941709
  3001   6 C     3045   1 H                                       1.0929472
  3001   6 C     3046   1 H                                       1.0932450
  3000   6 C     3047   1 H                                       1.0928463
  3000   6 C     3048   1 H                                       1.0931001
  2999   6 C     3049   1 H                                       1.0934776
  2999   6 C     3050   1 H                                       1.0933664
  2998   6 C     3051   1 H                                       1.0921749
  2998   6 C     3052   1 H                                       1.0935076
  2997   6 C     3053   1 H                                       1.0941539
  2997   6 C     3054   1 H                                       1.0927809
  2996   6 C     3055   1 H                                       1.0926131
  2996   6 C     3056   1 H                                       1.0933269
  2995   6 C     3057   1 H                                       1.0942101
  2995   6 C     3058   1 H                                       1.0924472
  2994   6 C     3059   1 H                                       1.0917667
  2994   6 C     3060   1 H                                       1.0931844
  2993   6 C     3061   1 H                                       1.0945503
  2993   6 C     3062   1 H                                       1.0921854
  2992   6 C     3063   1 H                                       1.0914128
  2992   6 C     3064   1 H                                       1.0927623
  2991   6 C     3065   1 H                                       1.0937393
  2991   6 C     3066   1 H                                       1.0899730
  2990   6 C     3067   1 H                                       1.0936325
  2990   6 C     3068   1 H                                       1.0936625
  2989   6 C     3069   1 H                                       1.0911907
  2989   6 C     3070   1 H                                       1.0932062
  2988   6 C     3071   1 H                                       1.0935393
  2988   6 C     3072   1 H                                       1.0914475
  2987   6 C     3073   1 H                                       1.0933705
  2987   6 C     3074   1 H                                       1.0928702
  2986   6 C     3075   1 H                                       1.0934144
  2986   6 C     3076   1 H                                       1.0927927
  2985   6 C     3077   1 H                                       1.0934828
  2985   6 C     3078   1 H                                       1.0926508
  2984   6 C     3079   1 H                                       1.0906607
  2984   6 C     3080   1 H                                       1.0925398
  2983   6 C     3081   1 H                                       1.0926932
  2983   6 C     3082   1 H                                       1.0922779
  2982   6 C     3083   1 H                                       1.0933342
  2982   6 C     3084   1 H                                       1.0937199
  2981   6 C     3085   1 H                                       1.0922654
  2981   6 C     3086   1 H                                       1.0925633
  2980   6 C     3087   1 H                                       1.0917755
  2980   6 C     3088   1 H                                       1.0919864
  2979   6 C     3089   1 H                                       1.0937526
  2979   6 C     3090   1 H                                       1.0913777
  2978   6 C     3091   1 H                                       1.0919506
  2978   6 C     3092   1 H                                       1.0939339
  2977   6 C     3093   1 H                                       1.0935556
  2977   6 C     3094   1 H                                       1.0934917
  2976   6 C     3095   1 H                                       1.0936766
  2976   6 C     3096   1 H                                       1.0913681
  2975   6 C     3097   1 H                                       1.0890299
  2975   6 C     3098   1 H                                       1.0930562
  2974   6 C     3099   1 H                                       1.0933997
  2974   6 C     3100   1 H                                       1.0926437
  2973   6 C     3101   1 H                                       1.0929048
  2973   6 C     3102   1 H                                       1.0935015
  2972   6 C     3103   1 H                                       1.0927465
  2972   6 C     3104   1 H                                       1.0914024
  2971   6 C     3105   1 H                                       1.0928553
  2971   6 C     3106   1 H                                       1.0924141
  2970   6 C     3107   1 H                                       1.0931548
  2970   6 C     3108   1 H                                       1.0934313
  2969   6 C     3109   1 H                                       1.0927434
  2969   6 C     3110   1 H                                       1.0916799
  2968   6 C     3111   1 H                                       1.0929884
  2968   6 C     3112   1 H                                       1.0919031
  2967   6 C     3113   1 H                                       1.0928650
  2967   6 C     3114   1 H                                       1.0917953
  2966   6 C     3115   1 H                                       1.0927571
  2966   6 C     3116   1 H                                       1.0928799
  2965   6 C     3117   1 H                                       1.0931348
  2965   6 C     3118   1 H                                       1.0924401
  2964   6 C     3119   1 H                                       1.0925126
  2964   6 C     3120   1 H                                       1.0929112
  2963   6 C     3121   1 H                                       1.0921489
  2963   6 C     3122   1 H                                       1.0930890
  2962   6 C     3123   1 H                                       1.0923769
  2962   6 C     3124   1 H                                       1.0913673
  2961   6 C     3125   1 H                                       1.0925676
  2961   6 C     3126   1 H                                       1.0928626
  2960   6 C     3127   1 H                                       1.0918279
  2960   6 C     3128   1 H                                       1.0929881
  2959   6 C     3129   1 H                                       1.0928310
  2959   6 C     3130   1 H                                       1.0902520
  2958   6 C     3131   1 H                                       1.0919955
  2958   6 C     3132   1 H                                       1.0937890
  2957   6 C     3133   1 H                                       1.0933181
  2957   6 C     3134   1 H                                       1.0934042
  2956   6 C     3135   1 H                                       1.0934827
  2956   6 C     3136   1 H                                       1.0916801
  2955   6 C     3137   1 H                                       1.0915866
  2955   6 C     3138   1 H                                       1.0926719
  2954   6 C     3139   1 H                                       1.0927742
  2954   6 C     3140   1 H                                       1.0922822
  2953   6 C     3141   1 H                                       1.0922527
  2953   6 C     3142   1 H                                       1.0927102
  2952   6 C     3143   1 H                                       1.0928552
  2952   6 C     3144   1 H                                       1.0930460
  2951   6 C     3145   1 H                                       1.0927151
  2951   6 C     3146   1 H                                       1.0928816
  2950   6 C     3147   1 H                                       1.0931061
  2950   6 C     3148   1 H                                       1.0931917
  2949   6 C     3149   1 H                                       1.0929203
  2949   6 C     3150   1 H                                       1.0931674
  2948   6 C     3151   1 H                                       1.0932764
  2948   6 C     3152   1 H                                       1.0928373
  2947   6 C     3153   1 H                                       1.0920225
  2947   6 C     3154   1 H                                       1.0929869
  2946   6 C     3155   1 H                                       1.0929419
  2946   6 C     3156   1 H                                       1.0899454
  2945   6 C     3157   1 H                                       1.0922154
  2945   6 C     3158   1 H                                       1.0921142
  2944   6 C     3159   1 H                                       1.0929612
  2944   6 C     3160   1 H                                       1.0921108
  2943   6 C     3161   1 H                                       1.0934739
  2943   6 C     3162   1 H                                       1.0946616
  2942   6 C     3163   1 H                                       1.0925754
  2942   6 C     3164   1 H                                       1.0892758
  2941   6 C     3165   1 H                                       1.0927058
  2941   6 C     3166   1 H                                       1.0923431
  2940   6 C     3167   1 H                                       1.0922159
  2940   6 C     3168   1 H                                       1.0927071
  2939   6 C     3169   1 H                                       1.0940430
  2939   6 C     3170   1 H                                       1.0934037
  2938   6 C     3171   1 H                                       1.0915245
  2938   6 C     3172   1 H                                       1.0919451
  2937   6 C     3173   1 H                                       1.0936728
  2937   6 C     3174   1 H                                       1.0937155
  2936   6 C     3175   1 H                                       1.0917497
  2936   6 C     3176   1 H                                       1.0926673
  2935   6 C     3177   1 H                                       1.0910885
  2935   6 C     3178   1 H                                       1.0927731
  2934   6 C     3179   1 H                                       1.0920212
  2934   6 C     3180   1 H                                       1.0935399
  2933   6 C     3181   1 H                                       1.0932789
  2933   6 C     3182   1 H                                       1.0926694
  2932   6 C     3183   1 H                                       1.0927436
  2932   6 C     3184   1 H                                       1.0934809
  2931   6 C     3185   1 H                                       1.0919198
  2931   6 C     3186   1 H                                       1.0930047
  2930   6 C     3187   1 H                                       1.0927630
  2930   6 C     3188   1 H                                       1.0936425
  2929   6 C     3189   1 H                                       1.0917058
  2929   6 C     3190   1 H                                       1.0931629
  2928   6 C     3191   1 H                                       1.0926207
  2928   6 C     3192   1 H                                       1.0930325
  2927   6 C     3193   1 H                                       1.0923320
  2927   6 C     3194   1 H                                       1.0931369
  2926   6 C     3195   1 H                                       1.0932551
  2926   6 C     3196   1 H                                       1.0922585
  2925   6 C     3197   1 H                                       1.0929641
  2925   6 C     3198   1 H                                       1.0930899
  2924   6 C     3199   1 H                                       1.0935615
  2924   6 C     3200   1 H                                       1.0910135
  2923   6 C     3201   1 H                                       1.0930015
  2923   6 C     3202   1 H                                       1.0936347
  2922   6 C     3203   1 H                                       1.0943553
  2922   6 C     3204   1 H                                       1.0926721
  2921   6 C     3205   1 H                                       1.0911937
  2921   6 C     3206   1 H                                       1.0926181
  2920   6 C     3207   1 H                                       1.0928656
  2920   6 C     3208   1 H                                       1.0937583
  2919   6 C     3209   1 H                                       1.0923268
  2919   6 C     3210   1 H                                       1.0928710
  2918   6 C     3211   1 H                                       1.0927005
  2918   6 C     3212   1 H                                       1.0939169
  2917   6 C     3213   1 H                                       1.0909301
  2917   6 C     3214   1 H                                       1.0933349
  2916   6 C     3215   1 H                                       1.0918069
  2916   6 C     3216   1 H                                       1.0904202
  2915   6 C     3217   1 H                                       1.0910377
  2915   6 C     3218   1 H                                       1.0922561
  2914   6 C     3219   1 H                                       1.0917977
  2914   6 C     3220   1 H                                       1.0932627
  2913   6 C     3221   1 H                                       1.0917156
  2913   6 C     3222   1 H                                       1.0936794
  2912   6 C     3223   1 H                                       1.0933537
  2912   6 C     3224   1 H                                       1.0905310
  2911   6 C     3225   1 H                                       1.0928572
  2911   6 C     3226   1 H                                       1.0933043
  2910   6 C     3227   1 H                                       1.0930647
  2910   6 C     3228   1 H                                       1.0927145
  2909   6 C     3229   1 H                                       1.0927394
  2909   6 C     3230   1 H                                       1.0934849
  2908   6 C     3231   1 H                                       1.0930839
  2908   6 C     3232   1 H                                       1.0912219
  2907   6 C     3233   1 H                                       1.0925681
  2907   6 C     3234   1 H                                       1.0936138
  2906   6 C     3235   1 H                                       1.0935683
  2906   6 C     3236   1 H                                       1.0932163
  2905   6 C     3237   1 H                                       1.0896468
  2905   6 C     3238   1 H                                       1.0925098
  2904   6 C     3239   1 H                                       1.0935127
  2904   6 C     3240   1 H                                       1.0931098
  2903   6 C     3241   1 H                                       1.0915191
  2903   6 C     3242   1 H                                       1.0935101
  2902   6 C     3243   1 H                                       1.0927325
  2902   6 C     3244   1 H                                       1.0891544
  2901   6 C     3245   1 H                                       1.0936067
  2901   6 C     3246   1 H                                       1.0937040
  2900   6 C     3247   1 H                                       1.0916544
  2900   6 C     3248   1 H                                       1.0938095
  2899   6 C     3249   1 H                                       1.0931992
  2899   6 C     3250   1 H                                       1.0911501
  2898   6 C     3251   1 H                                       1.0932382
  2898   6 C     3252   1 H                                       1.0924400
  2897   6 C     3253   1 H                                       1.0873612
  2897   6 C     3254   1 H                                       1.0875720
  2897   6 C     3255   1 H                                       1.0873218
  3016   6 C     3256   1 H                                       1.0884102
  3016   6 C     3257   1 H                                       1.0882558
  3016   6 C     3258   1 H                                       1.0882486

 * 2 distinct bonds (by element types)

   Z      Z             #   av. dist./Å        max./Å        min./Å
   1 H    6 C        2178     1.0925571     1.0949108     1.0864792
   6 C    6 C        1071     1.5272298     1.5365146     1.5218921


optimized geometry written to: xtbopt.xyz


           -------------------------------------------------
          | TOTAL ENERGY            -3427.578618998125 Eh   |
          | GRADIENT NORM               0.000950002960 Eh/α |
          | HOMO-LUMO GAP              11.246608599255 eV   |
           -------------------------------------------------

------------------------------------------------------------------------
 * finished run on 2024/06/20 at 06:09:08.521     
------------------------------------------------------------------------
 total:
 * wall-time:     2 d, 14 h, 50 min, 21.052 sec
 *  cpu-time:    13 d, 21 h, 49 min, 56.924 sec
 * ratio c/w:     5.312 speedup
 SCF:
 * wall-time:     0 d,  0 h,  7 min,  7.068 sec
 *  cpu-time:     0 d,  0 h, 37 min, 21.812 sec
 * ratio c/w:     5.249 speedup
 ANC optimizer:
 * wall-time:     2 d, 14 h, 42 min, 32.078 sec
 *  cpu-time:    13 d, 21 h, 11 min, 37.576 sec
 * ratio c/w:     5.313 speedup

