3864
 energy: -5104.062908487279 gnorm: 0.000879713150 xtb: 6.6.1 (8d0f1dd)
C           54.56339228201079       58.27030973422702       55.80655165738048
C           54.26702987294324       59.59844946793836       56.09140885406433
C           53.67368459243161       59.89195147086642       57.31310496884406
C           53.36943767312671       58.89353161931637       58.22139696285734
C           53.67602671441119       57.57619309106949       57.92744984570720
C           54.28467854088490       57.27092675333348       56.72149554271176
C           54.53515752429445       60.70025093661336       55.09730514070254
C           55.94659013403363       60.63262997560943       54.52101968249510
C           53.48254950032148       60.66478649889569       53.97609814684792
C           52.17462243450051       61.33798355465562       54.40723902024749
C           52.41208195592441       62.78956519447315       54.74871902210064
C           52.05103108516125       63.29619008486670       55.99098076953927
C           52.27688177648827       64.62254338437930       56.31577891214083
C           52.87228264809848       65.46813861767188       55.39678549439745
C           53.22574480517098       64.97926935662097       54.15016415664047
C           52.99364878260040       63.65486128253358       53.82816533746692
C           51.10338947772153       61.23633454333086       53.31012375960599
C           50.43228235351995       59.85326795199168       53.22551317624292
C           49.83929802898085       59.68588680479522       51.85083101000966
C           48.81377884809568       60.50477548900299       51.39607248521025
C           48.33370427621621       60.39000513756523       50.10427961649960
C           48.88833895230035       59.46296513506685       49.23759612810760
C           49.90963529845627       58.64068194385042       49.68082244525679
C           50.37011194267466       58.74330165209562       50.98017685080180
C           49.40282579502646       59.68530745523256       54.34798504127701
C           48.68493631726808       58.32698563415421       54.34531778369004
C           49.64059057757271       57.17409325462359       54.18699301958416
C           49.47354549252078       56.27758529429278       53.13817097086817
C           50.31065133938796       55.18617803531052       52.99281652704610
C           51.33800297502169       54.97924527789684       53.89627413443930
C           51.52845903424804       55.87791714841742       54.93232397370436
C           50.68650438165988       56.96499068834667       55.07831181281290
C           47.86082511782720       58.20740344659528       55.64170917219508
C           47.36055471552292       56.79248117662843       55.95223935554109
C           46.60636059345880       56.14888628974089       54.81521945202685
C           45.53285958794931       56.79311597976329       54.21391792137884
C           44.76842009696755       56.15846421257248       53.25181007241249
C           45.07437294371039       54.86541835896615       52.86564205208796
C           46.15082459677581       54.21683213940504       53.44420204645354
C           46.90506517657325       54.85287556624007       54.41388931870603
C           46.41025441650451       56.77401294005321       57.16421556800405
C           46.93157095761048       57.36013147393120       58.48255486339995
C           45.83039508990505       57.27436352468762       59.51482740250409
C           45.31867089859532       58.42372639072986       60.10361369261533
C           44.30475260098599       58.35209162979241       61.04443008990922
C           43.77808892443383       57.12411870102318       61.40523591670029
C           44.27585821139922       55.97129003928067       60.82280293905206
C           45.29436253044333       56.04679090916552       59.89064202827772
C           48.19173267498928       56.64378385494894       58.97605174763628
C           48.77560404273612       57.31867643585517       60.22393362011286
C           49.13393119697852       58.75184557219465       59.92770028866491
C           50.00708457571334       59.07285640643127       58.89586105975614
C           50.30955545443022       60.39134716487643       58.61009424293731
C           49.75521175617011       61.41261019103679       59.36023859990792
C           48.89746899011507       61.10543707194937       60.40201393728328
C           48.59014003313296       59.78552326519847       60.68167368473389
C           50.00738973252248       56.55659920130886       60.73561116681074
C           49.61393743334428       55.27482596615535       61.48383645181675
C           48.90361578660450       55.65841980040553       62.75975615939397
C           49.57756412422674       56.27520905621939       63.80715591434130
C           48.89479475507361       56.69846397817465       64.93316836959892
C           47.52448822501191       56.52515339188682       65.02408700990279
C           46.84255422077771       55.91419265345802       63.98681177618809
C           47.53020208179304       55.47733140840174       62.86961927983451
C           50.81656664047304       54.36115592622450       61.75344423147762
C           51.54224489456221       53.87835999896448       60.48136720114574
C           50.57101528998913       53.45182416677341       59.40999605858044
C           50.61714024659474       54.03164417070984       58.14713565772659
C           49.73736846936025       53.64611780755404       57.15120197614409
C           48.78205256494281       52.67864192005267       57.40856039117721
C           48.72118729458261       52.09418638751305       58.66291443306300
C           49.60837501174680       52.47699054031462       59.65250874157181
C           52.53162158312921       52.75800128441443       60.84828726204406
C           53.60201155370081       52.48351323988312       59.77237137438635
C           54.84641108849687       51.93791604541541       60.43120606065683
C           56.01044817610180       52.69550213721882       60.48679706401404
C           57.14203262311954       52.21800210371590       61.12639855212776
C           57.13492771065260       50.96255524333531       61.70889104192678
C           55.98185244156633       50.19864949042224       61.65910512386954
C           54.84668715789608       50.68859778255172       61.03962319420361
C           53.04665787758479       51.52909448927924       58.71204629573705
C           53.92709447562778       51.29452002273842       57.47308114831482
C           53.24654107894721       50.19020732745799       56.70113876845602
C           51.97955704169343       50.36349502764207       56.15328199708347
C           51.29903111768547       49.29719122182725       55.59355068173542
C           51.87951425529624       48.04060349316271       55.56440122393860
C           53.15670787360781       47.86596319029712       56.06747547824980
C           53.83059588257000       48.93301803810007       56.63466559576237
C           54.12511578793584       52.57697694549057       56.65504155538233
C           54.72319692373263       52.32917900750542       55.25961412104900
C           55.96529658687283       51.47813290854975       55.30156868019910
C           56.03576244464022       50.30768888708180       54.55680693873338
C           57.20102658076323       49.56117206370917       54.51585749868677
C           58.31341284890657       49.97283486793636       55.22840271020799
C           58.24810997616262       51.12307741195959       55.99546763348177
C           57.08327833355332       51.86653469685940       56.03241699406407
C           55.01477575483850       53.67696501101769       54.57517021607854
C           55.30864622786067       53.56662518145612       53.06503441421914
C           54.75264857443574       54.77815203494138       52.35608641357309
C           53.67369371991637       54.65109536200524       51.49094155887357
C           53.14871434196127       55.75524793685295       50.84417342091893
C           53.70809932422769       57.00471430522379       51.04124458657586
C           54.77754014215446       57.14712270876261       51.90865175081346
C           55.28900987383302       56.04400779320893       52.56697887125572
C           56.80566063876309       53.40868330494639       52.76899373276809
C           57.08056514247470       53.26081558910495       51.26531754313457
C           56.45232714839849       52.01535272610889       50.69802407470354
C           56.79210946628342       50.75906349126151       51.18812983857747
C           56.26106663745780       49.61244721234078       50.62759162216298
C           55.38233246901529       49.70432767499899       49.56142731854938
C           55.02126222385898       50.94867089257207       49.07462512576378
C           55.55447763281534       52.09379367503887       49.64120248473365
C           58.59277399516467       53.26167084499730       51.00081468052404
C           58.95207509342708       53.21041868035996       49.49815059860961
C           59.97089737088290       54.27502688674913       49.16930815478418
C           61.33841333995773       54.07762817072018       49.31330491496536
C           62.24118249443180       55.07617409233744       48.98591341250894
C           61.78721035652637       56.30171588040115       48.53184550222498
C           60.42640190843505       56.52146545046777       48.41611055049901
C           59.52942383213121       55.51627528349196       48.72413136551230
C           59.39562534077354       51.80116806223438       49.08872399454595
C           59.87327362992202       51.70513091430918       47.63271745890223
C           58.90086348061217       52.36554806697693       46.69132544527341
C           59.27828124964145       53.48460349287840       45.95949468298096
C           58.39431909913831       54.08783335488336       45.08316716796912
C           57.12179970159722       53.57281628896219       44.91291164567068
C           56.73192281916287       52.46988534038420       45.65139200914924
C           57.60978963417200       51.87568062376825       46.53750303964483
C           60.07358995787775       50.23255582027608       47.25579639954427
C           60.77701773991667       50.07537815507501       45.90093845426347
C           62.23870327665193       50.42436496130576       46.01890895154528
C           62.78350498824723       51.46374584154941       45.27834794621815
C           64.13003016651066       51.77312300517489       45.36460353278734
C           64.95470283105800       51.04709146548930       46.20509093195935
C           64.42007951202456       50.01929423153183       46.96441610647049
C           63.07613213168288       49.71037967836060       46.86965159006522
C           60.60267031619206       48.64820524560147       45.36892490001959
C           60.96805588153305       48.51248459872293       43.88472201968423
C           59.95315973580761       49.21182663711679       43.01500903426862
C           60.34569661043709       50.24747057732741       42.17766950417234
C           59.42892531696204       50.90162612985790       41.37311854591414
C           58.09788770548571       50.52573264638383       41.39317097703114
C           57.69263092662131       49.49038688071388       42.21832911136991
C           58.61201827819936       48.84157699005805       43.02288380807008
C           61.07325496951647       47.02374386939812       43.52307565388706
C           61.40122695619376       46.76721549099038       42.04585134127481
H           54.44427021733318       61.66234456907002       55.61504957821302
H           53.87702657653053       61.17769838859470       53.09765838239224
H           53.28967795183646       59.62826059529226       53.69192944205744
H           51.80921435637809       60.82944275858884       55.30537665801599
H           50.33178581723197       61.98826051034433       53.49552156253871
H           51.56782364903334       61.46677188158215       52.34789564543686
H           51.19987817497378       59.08308665140233       53.35242661776076
H           49.91643781962045       59.80775184054279       55.30348371246168
H           48.65181712471051       60.47574872595369       54.28455078901677
H           48.00453609916491       58.30142000422039       53.48853517116853
H           47.01752860931862       58.89889951455223       55.58250882187082
H           48.22758315593003       56.16356588010451       56.17507401575185
H           45.50182506503889       57.31723815418673       56.89814379626796
H           46.12924226494580       55.73564556233404       57.34439777495341
H           47.17293813441315       58.41737789419392       58.33188033243356
H           47.95128737364593       55.60303817132932       59.19565493578839
H           48.94244566364528       56.64262164748421       58.18526044406651
H           48.01467748821538       57.31327628039968       61.01167144517825
H           50.64321432558677       56.31418163881559       59.88445199315751
H           50.57433905900568       57.19913623625159       61.41257949909866
H           48.90794147567060       54.71433067182777       60.86430807641599
H           52.13213443108175       54.71569674102408       60.09245338572757
H           53.04516712332479       53.05147937134087       61.76477506480470
H           51.98540325167956       51.83694564905527       61.05791803691773
H           53.85635889466347       53.43662787364269       59.29816171058452
H           52.86801811766642       50.55768448031068       59.17887984090955
H           52.08204834317844       51.90796858291086       58.37614782403424
H           54.91032898364570       50.93540694806822       57.79794288917295
H           53.16281430246018       53.08037382841469       56.53196831964215
H           54.78234478803822       53.24668114806301       57.21337173925478
H           53.96967385946503       51.79920692921565       54.66577989607196
H           54.13884734526486       54.31737312800338       54.70523465182538
H           55.85545599271298       54.16572860057919       55.07210905312242
H           54.79472286865243       52.68019712484322       52.67652441090607
H           57.34315566995544       54.28745371602375       53.13320339391427
H           57.19039705268004       52.53982259315021       53.30294521880568
H           56.64907144287548       54.13101396270342       50.75711010722190
H           59.00767849957447       54.17147584100346       51.43980365458449
H           59.04258010722256       52.41015320819106       51.51377712935635
H           58.04784228955691       53.44741952694389       48.92702426961945
H           60.20267443654688       51.45512992807784       49.73784859041802
H           58.55000842519034       51.12608707459438       49.23397039283109
H           60.83711466690730       52.21752268457932       47.54430930713829
H           60.65419058676964       49.73605840066285       48.03541588804617
H           59.09791475827818       49.74557572521301       47.21203028927611
H           60.30002120829525       50.75973692580003       45.18956353100650
H           61.22263287964003       47.96996309221781       45.95835478126823
H           59.56260665214322       48.35055281328218       45.49777655209915
H           55.01297335751660       58.00572558495601       54.86176111144086
H           54.54601726940400       56.24745064569328       56.48876083172025
H           53.44790595785217       56.79262469236220       58.63771139872247
H           52.89154674224237       59.15162403230504       59.15523484681530
H           53.44471519427128       60.92007470352038       57.55771306045558
H           51.59034725869295       62.64474030543492       56.72067589415163
H           51.99128071462408       64.99320127466153       57.29062119844647
H           53.05818814827383       66.50225782874224       55.64886742427720
H           53.68829647295406       65.63042688815143       53.42334263467744
H           53.27476050796168       63.29448183096725       52.84918810867809
H           48.38217211298829       61.23983497604275       52.05839950992055
H           47.52563820726510       61.02805730993616       49.77588912344682
H           48.53220331907816       59.38289220194006       48.21918237926809
H           50.35653226877216       57.91910057872656       49.01262755182778
H           51.15256760819077       58.08467969006791       51.32740757469985
H           48.67645563252655       56.43068573184406       52.42410394869940
H           50.15276668598219       54.49838251951594       52.17505131735997
H           51.99064994732659       54.12500659052083       53.79152808571507
H           52.33540477509337       55.73329564173302       55.63545793013430
H           50.85039718653564       57.65592365514351       55.89304104841823
H           48.48439119878012       58.52983935598764       56.47793232111577
H           45.28938038661862       57.80355009024722       54.50766456849618
H           43.92542403330899       56.67243926981229       52.81247807717595
H           44.47631360958643       54.36452211489527       52.11952161901279
H           46.39846570410734       53.21019824513613       53.14079639571162
H           47.73844953175406       54.33739674816489       54.86885890012001
H           45.71815942034026       59.39090899218932       59.82972634745811
H           43.92729574376204       59.26034445611884       61.49157334076913
H           42.97861459285325       57.06170782896989       62.12856761269349
H           43.86205256408672       55.00933917151514       61.08901126645785
H           45.66671260623048       55.13267431766291       59.45065200368435
H           50.45976000676163       58.28699939369089       58.30822066813305
H           50.98665611247900       60.61392925111439       57.79766590568916
H           49.98199958426509       62.44379758312702       59.13942161107011
H           48.46948560128440       61.90343809717015       60.99159417207071
H           47.91576223202762       59.54607794434471       61.49280677532472
H           50.64361485456930       56.44338213744767       63.75018449262748
H           49.43736152617264       57.17896409498095       65.73485630947796
H           46.99028206265422       56.86957601368686       65.89754131226408
H           45.77197712007717       55.78359471567609       64.03869920158579
H           46.98546131041512       55.00252874575356       62.06579254971529
H           51.54017109801914       54.88674987186076       62.37980502388492
H           50.45758328152308       53.49720014308934       62.31818240203931
H           51.35870087288518       54.78893503091425       57.93126077811763
H           49.80603460303917       54.10357499330375       56.17374278741717
H           48.08788309149693       52.38379736044748       56.63469825583591
H           47.98022529512959       51.33585318968009       58.87479899057006
H           49.54443094919811       52.01348594094819       60.62547988655021
H           56.03182126121637       53.67574799822429       60.02809843345383
H           58.03498531807440       52.82457413148086       61.16697446505989
H           58.02185942057226       50.58301126002462       62.19446368903227
H           55.95953271620608       49.21373342417861       62.10325265642619
H           53.95288672876138       50.08549221594233       61.03778005130642
H           51.50481825147814       51.33395586100691       56.18045306131135
H           50.30932884595489       49.44375935225845       55.18762247462285
H           51.33193694400938       47.19848717328760       55.16386603681942
H           53.61934226418682       46.89050456509953       56.04232998044163
H           54.81900860824503       48.79236236133764       57.04991974050205
H           55.17569442317482       49.98327736056752       53.98747434497408
H           57.23999776902096       48.66553746624928       53.91315135412117
H           59.23357919254705       49.40853376510525       55.18587565969482
H           59.11582928848948       51.44429929728260       56.55001127031394
H           57.05153630945207       52.76845847447660       56.62687102357908
H           53.24407427594550       53.67450950702592       51.31564536190011
H           52.30026486174270       55.64024960421656       50.18612860614292
H           53.31278700992469       57.86149929503040       50.51512744726674
H           55.21834647310597       58.12137995179728       52.06931964714860
H           56.12452942772467       56.17139884257247       53.24074825232413
H           57.48261012826792       50.67320547091279       52.01422081989240
H           56.53605473305143       48.64311599107916       51.01611100987699
H           54.98407319807449       48.80668289281225       49.11195167755631
H           54.32778345368119       51.02579986783898       48.25041882635763
H           55.27251524781730       53.06308056992425       49.25325394949471
H           61.71215084113243       53.12980703448618       49.67185993818819
H           63.30130106092847       54.89222151253521       49.08286569752755
H           62.48292453591983       57.08129031782269       48.26029889406044
H           60.07099223331111       57.48291801437546       48.07616339270968
H           58.46719832468729       55.68765720474944       48.61220841875648
H           60.27174468204735       53.89129013595278       46.08746148316424
H           58.69260729629929       54.97019605445406       44.53602671569895
H           56.43575332128163       54.03742995513763       44.21990564386019
H           55.73699399976812       52.06706129176259       45.54717248264943
H           57.27571493091619       51.02778310783194       47.11778390619705
H           62.14130164916238       52.03692995257028       44.62706000126764
H           64.53445740095599       52.58254582408482       44.77240942578158
H           66.00683572173126       51.28120730886580       46.27698394344984
H           65.05466493216041       49.45781957038756       47.63515342176677
H           62.67988247537399       48.90426952236761       47.47143183978018
H           58.27595332127137       48.03885370245040       43.66577829805270
H           56.65470689642319       49.18861164890813       42.22998353439195
H           57.37795809538956       51.03672339180488       40.76959642238543
H           59.75871861036333       51.70841754782247       40.73451262436833
H           61.38461011601107       50.54289721578367       42.15127892917270
H           56.67447990776504       60.68668682932898       55.32626767984803
H           56.11286075136812       59.71551779382188       53.96222533027453
H           56.11059879434812       61.47657427170542       53.85443150602156
H           61.94509744835766       48.98061188045816       43.72381707796967
H           61.84528139194997       46.57056031264647       44.14948141453378
H           60.12499128942303       46.54285836148632       43.76589118482800
C           61.70728871285494       45.28137125416194       41.79443193644666
C           62.56959828479302       47.60463388794119       41.58853377237152
C           62.44729602834398       48.41716130326170       40.46889591258401
C           63.50106286943076       49.20812848806563       40.04603835209420
C           64.69870568089408       49.19678170954576       40.73921222427049
C           64.83626485288005       48.38376181248421       41.85127504230292
C           63.78162409429522       47.59286016850560       42.26925239090914
H           61.51088387470792       48.43805893994514       39.92895409615835
H           63.38375818846026       49.83975792993904       39.17733736724609
H           65.52092385273045       49.81791454605926       40.41520900112840
H           65.76800806517109       48.36881229050528       42.39833689208252
H           63.90503350659041       46.96859794869314       43.14201814906843
C           60.51603747833194       44.33802233278036       42.02786653176525
H           62.04640423511508       45.16563942117718       40.76158153671114
H           62.52826563192062       44.97532350688398       42.44710016923155
C           59.46780865799816       44.48513818504885       40.96366944847323
C           59.48971494147609       43.66372315594946       39.84270434789294
C           58.54684613520020       43.80493043169852       38.83974565302744
C           57.57812754917746       44.78907406416593       38.93498287219457
C           57.55252168720317       45.61902256952845       40.04261078234028
C           58.47846437156141       45.45667948666236       41.05724359004433
H           60.25206367852876       42.90139967274594       39.75761935112963
H           58.57160149193294       43.14806579825645       37.98196794698937
H           56.84369199199585       44.90922066412892       38.15233331654671
H           56.81035926254885       46.39989955272061       40.11316294729684
H           58.42749858891025       46.09161253390449       41.92952643169991
H           60.53315652311538       47.04889109386256       41.44139154103875
H           60.89019392845324       43.31100492573181       42.02334551164037
H           60.08173377569580       44.53511965330107       43.00808450123260
C           41.03746156355361       37.70013965377704       35.25822409138127
C           41.54759462773747       37.61434098684615       36.54748621579714
C           40.73357755454984       37.10133036703424       37.55050076119958
C           39.43995182036291       36.69683808525547       37.27633219938216
C           38.93420861409660       36.80767628718385       35.99231183237344
C           39.73895718536601       37.30757430286972       34.98285995307270
C           42.96312462627708       38.02259013302830       36.87029815910614
C           43.90064524928075       36.85285336745317       36.55553216154828
C           43.39814220599197       39.29138669442457       36.12125315423596
C           44.46707886155568       40.08379629570510       36.89663429671668
C           45.29927590104845       40.89590364204071       35.93398979356280
C           46.66013254449771       40.65662265653287       35.78558169857585
C           47.42993168865819       41.41965163554939       34.92579710013651
C           46.84195634431346       42.42135980493307       34.17452204889167
C           45.47985923468559       42.64147778995770       34.28129382549280
C           44.71677648896229       41.88969200250739       35.15574875381787
C           43.79241472157480       40.96868017606340       37.96000666190272
C           44.61699531914727       41.20121392967424       39.23931438320418
C           43.79167128665814       42.08222094661681       40.14733032120211
C           42.82272824790832       41.49355908460071       40.95496242182666
C           41.98945584669946       42.25938081581857       41.74898193787817
C           42.10992251214931       43.63930975551694       41.75246927935748
C           43.07046571918842       44.23813232032293       40.95677384178352
C           43.89886136961841       43.46739368359503       40.15744020328628
C           45.99902834071523       41.75431692304954       38.90074326534269
C           46.88983893224178       42.06017166043074       40.11293798963069
C           47.03070484486592       40.82923031598441       40.97087339149059
C           47.79589972061481       39.74208895853481       40.56530432443342
C           47.87744589912736       38.60128743772805       41.34468206191417
C           47.19210350256505       38.52322296812297       42.54519331369766
C           46.42910296030851       39.60147751809642       42.95728081882146
C           46.34974203939718       40.74241189422538       42.17957362483175
C           48.24109922271710       42.58238906704609       39.60221559209934
C           48.15759833856249       44.05904993012812       39.16663519587651
C           48.90890757698616       44.30459025294191       37.88398347410370
C           48.27778557807534       44.86257651215444       36.78047645737902
C           48.97949646624604       45.12419586646915       35.61702802871129
C           50.32799367973895       44.82569190616806       35.54044676593676
C           50.96652942257381       44.25526645765272       36.62961119413469
C           50.26205172759948       43.99852695007841       37.79128175401267
C           48.70753051978903       44.96417957943363       40.27346415324093
C           48.46271520735819       46.45592368265411       40.01025363654360
C           47.05308636057981       46.86247956353715       40.35085526985497
C           46.57428627280943       46.80435903156435       41.65490654118081
C           45.28670547735443       47.21051250687083       41.95485144967981
C           44.46086552059548       47.70511956715129       40.95861592155639
C           44.92397216868306       47.76066872529563       39.65548621432807
C           46.20497023346747       47.33242213878334       39.35622175316395
C           49.50048724847632       47.28456132002216       40.78789389491287
C           50.76233765564793       47.51727070943195       39.93132247402706
C           51.98486858861694       47.56375385208941       40.80662384237754
C           53.05419337351699       46.70513538987574       40.59368460972163
C           54.15697589833854       46.72745444425222       41.42850511705676
C           54.20493808173724       47.60255113934681       42.49819998828528
C           53.14765952724943       48.46886329259576       42.71436643362652
C           52.04870829203962       48.44682871572381       41.87727327624037
C           50.58897289848002       48.80587143903649       39.10769196460232
C           51.28646269360733       48.78268570246506       37.74194207462222
C           52.74750814126334       48.42381270548466       37.84654401746212
C           53.62975120437328       49.19564617760501       38.59479904072106
C           54.97658322603932       48.88732444414519       38.63749747699921