3536
 energy: -3716.234797730865 gnorm: 0.000987489492 xtb: 6.6.1 (8d0f1dd)
C           54.04507676705901       38.96653642666653       62.25111953601974
C           54.63194122085220       40.11590806485524       63.06943910332048
C           55.91829787713246       40.60677395364908       62.41075879190765
C           54.86994717186860       39.65148727746453       64.51118399372470
C           55.23290495413271       40.75678979452866       65.50951957950745
C           55.74510350942562       40.13185820902349       66.80797607163674
C           54.09047946561395       41.74859579242139       65.78073728024353
C           52.81156396775828       41.15397103222740       66.40550107404877
C           51.68941565514353       41.07551880511451       65.37106050726517
C           52.38690535992979       41.99071366605927       67.62053532754148
C           51.26360138380046       41.40927896485935       68.49152572291945
C           50.76296943532056       42.50030280812646       69.43833020932246
C           51.75810170618230       40.19546513780720       69.28786309430437
C           50.64790008057247       39.39187315510026       69.99074865024080
C           51.02898727735621       39.12707481209981       71.44833036008488
C           50.37091330012183       38.05172948998714       69.29602810545066
C           49.76331647835802       38.13845961203080       67.88914738673051
C           48.35738857906915       38.73438793439205       67.93306406860559
C           49.73310655295725       36.73741316197262       67.24146211862418
C           50.51722992458849       36.58328991931352       65.92889859858792
C           51.99557890584389       36.92737951899941       66.11793402453765
C           49.94163848657504       37.40020637826400       64.76474261116532
C           48.52037380114052       37.03556902668621       64.31198906032002
C           48.36628149871992       35.53256339097619       64.07339868456124
C           48.16520876340039       37.76390792315263       63.00551554477590
C           48.10968527620572       39.29541578780899       63.05630340394595
C           46.91944654482324       39.77544819548238       63.88641206152653
C           47.99192719786829       39.87590107512817       61.63757183118359
C           49.23559940183590       39.72302528373798       60.75438383031616
C           50.42170204929902       40.47638531545672       61.35773448306720
C           48.98038241448679       40.24812768329799       59.33311040666149
C           47.86553923399288       39.55826548307409       58.53243980873650
C           47.98381458700361       38.03461858284945       58.58870053482995
C           47.91282612595388       39.98178926508508       57.05535552384711
C           47.66676303774235       41.46576507185465       56.75972757980229
C           46.20077775063920       41.83005894867611       56.99151952033505
C           48.05487137221422       41.79978919336749       55.30962814958877
C           49.56542335819844       41.82824654490800       55.03222748356394
C           50.21355470953738       43.03833319226718       55.69987864005206
C           49.82729413880055       41.83438511204585       53.51908921148263
C           51.28184696005624       41.55799712279615       53.11873630698892
C           51.47818460821190       41.87902750616203       51.63730034617949
C           51.78436836634209       40.14430281887354       53.45678572436796
C           51.11705172991081       38.96745356551347       52.72612412510956
C           49.98699184282737       38.36009227670488       53.55907783975031
C           52.14955171963233       37.87140031853718       52.41546926272453
C           53.11766203157866       38.19013043946345       51.26540520005243
C           52.41465072346799       38.04780635648272       49.91785269896422
C           54.33094825079907       37.25323771533331       51.37210945615723
C           55.38047609862959       37.34292944342560       50.25327499800692
C           56.44761884104372       36.27581809386898       50.49653218670052
C           56.00222847330340       38.74142515775416       50.19689351305661
C           57.03262139772453       38.98933470306814       49.08271018126928
C           57.53437599308042       40.42647766663332       49.21718844030642
C           56.40986804190851       38.70479253504194       47.70717395889277
C           57.10608813134836       39.30983750379935       46.47996540620066
C           56.28223019985128       38.96297085422032       45.23849596222522
C           58.55173847415262       38.82268924656229       46.32090044220440
C           59.38400374197525       39.66439396783024       45.34123078375897
C           60.61341722532312       38.87705241569531       44.89060966256116
C           59.81293559423798       41.00087428497739       45.96142434991693
C           60.22396962821504       42.06497515359307       44.92455881061467
C           61.66650002085540       42.51320422192578       45.15495471009313
C           59.30798985385068       43.29575763095497       44.97289547556789
C           57.83728047090391       43.04916501446139       44.61519558908492
C           57.67677720925347       42.62862188849688       43.15586005021009
C           57.01664650894624       44.32055579602917       44.88530560247390
C           55.53714308197367       44.05422939568575       45.20719179215655
C           54.70990956322424       45.29525489617255       44.87986020183036
C           55.39419051577143       43.66986330580956       46.68519736775552
C           54.01600815484974       43.15592937269612       47.12797556124001
C           53.95990611390341       43.16402635909279       48.65583083669909
C           53.74694631805112       41.75452712059764       46.57252342740970
C           52.32964311538881       41.20528787925477       46.79000302650528
C           52.26288921479262       39.78003797224538       46.23783936662845
C           51.24859708716595       42.07820914578186       46.12617622011944
C           50.50780462366237       43.01504103027060       47.09025843587195
C           49.53939496495544       42.21404886157150       47.95972520469556
C           49.72842092397482       44.10017418463247       46.33376068077364
C           50.58889658722492       45.19077581499900       45.68540272848800
C           51.18040211873693       46.12235032417737       46.74398593637019
C           49.77109252094920       46.03275992967636       44.69512971763051
C           49.35364684046419       45.33771787004081       43.39434388121346
C           50.56639771625185       45.08227691116303       42.49899760359914
C           48.33802617094292       46.19616011563680       42.62306628147859
C           46.94239438929354       46.31179765510210       43.24818856786152
C           46.21000142547344       44.97099935954392       43.22068191008213
C           46.09951331942178       47.36696291536088       42.51792018327355
C           46.54519938814573       48.80443924100344       42.77618976677768
C           45.57286542605597       49.81190605400338       42.17547863750723
H           53.86142867995059       39.28288461947903       61.22695417827598
H           54.73518468901734       38.12549994028348       62.22903156125505
H           53.10376398207963       38.62486300410667       62.67659681748120
H           45.89912620529096       50.82867807592106       42.38251991845639
H           45.50689730796806       49.68489136660972       41.09709861168101
H           44.57787400086246       49.68233124987752       42.59602849985163
H           46.11806698614011       47.16678653354388       41.44399273309575
H           45.06320650787075       47.26843800124205       42.85114176980159
H           48.76322052370386       47.19579157962684       42.51373500895966
H           48.22255897008985       45.77855561866525       41.61964055305923
H           48.89732653911903       44.37211400127474       43.62511399766267
H           51.05129462742843       46.02114312462455       42.23789525136952
H           51.29549848120506       44.44702543463194       42.99468570261232
H           50.26240123689649       44.58710672959160       41.57941401444598
H           48.87853331553256       46.38258221471074       45.21745985690577
H           50.36139919039702       46.91280201040421       44.42437130769116
H           49.12989211047451       43.60691074191471       45.56551027301789
H           49.03814100393155       44.58314068646492       47.02918639855664
H           47.03571472583611       46.63071128567439       44.29057072096185
H           45.22264827420874       45.06930091803331       43.66648224300375
H           46.09097372883782       44.62418208626061       42.19624556051713
H           46.75215054597719       44.21299534173810       43.77925985600626
H           51.41373536388172       44.72156458770716       45.14304082989678
H           50.38771899137023       46.67348549444689       47.24611499802556
H           51.73724932833231       45.57013308933786       47.49573755885056
H           51.85853304243885       46.83797536242485       46.28320885640822
H           51.23061417149974       43.49782487406831       47.75054268493712
H           49.06324886671872       42.85920686045038       48.69406092296256
H           48.76424583078113       41.76052466422408       47.34580733853139
H           50.05796413243937       41.42028124610912       48.49163578264572
H           51.71159077734086       42.65744888275750       45.32634096657792
H           50.50375169982127       41.43206133052215       45.65555121136288
H           52.13778916148864       41.15018367496418       47.86503975984733
H           53.02442148748230       39.14964890328937       46.69296718007454
H           51.29176120610709       39.33476902214012       46.44218340672710
H           52.42112749517722       39.78066077592048       45.16080327876981
H           53.94456120743753       41.75517258647034       45.49830459987807
H           54.45951213218040       41.06600092724693       47.03371750479496
H           53.25263888200470       43.83909049142193       46.75292296544644
H           54.74921616040174       42.53695057857377       49.06724677502482
H           54.09455403695162       44.17717329209847       49.03224468347774
H           53.00688117717612       42.79216465984118       49.02232804574358
H           56.13802582692119       42.90728102057925       46.92817605150348
H           55.63285458688419       44.55744126184675       47.27820505415391
H           55.18612381627739       43.22968463229612       44.57986735006650
H           53.65728510007075       45.13733595141746       45.09326316527798
H           55.05275499878323       46.14370606394046       45.46790426590577
H           54.80271443646343       45.54671464550734       43.82562189043603
H           57.45352998984090       44.87141653011500       45.72157082307090
H           57.08520741946201       44.96640166688674       44.00740881150051
H           57.44995581036279       42.24372533335431       45.24455623880489
H           58.13771113795278       43.36175678877323       42.49641143366586
H           58.13965230881990       41.66327971212454       42.96881456588960
H           56.62332315978798       42.55006368626803       42.89662308949021
H           59.35607361825003       43.71055319389893       45.98390868858135
H           59.70383672884483       44.05414928794313       44.29291011576269
H           60.16860052913433       41.62939181635205       43.92317650349271
H           61.98100865380700       43.21706479236953       44.38715777579880
H           61.75807038366522       43.00158401471296       46.12314098180558
H           62.34187925467610       41.66197107312725       45.13476655255328
H           58.99830235728339       41.39889082534785       46.56567729655960
H           60.64745296507980       40.81022192364201       46.64045542706224
H           58.77263741465794       39.87296684706314       44.45888849029421
H           60.31980991604291       37.96750564395454       44.37087677241824
H           61.22592342684762       39.47120816430528       44.21654867492384
H           61.22099562882207       38.59936826834431       45.75008935518972
H           59.05629188145018       38.82174444529176       47.28813634838048
H           58.52715245500194       37.78868331987174       45.96857766453859
H           57.10399268698184       40.39769244113361       46.58613697017305
H           56.70974312449339       39.40992824457806       44.34510172227066
H           56.24450276001442       37.88452517636834       45.09663222286341
H           55.26380357809408       39.32974288481981       45.34028406182385
H           56.35282092104249       37.62320016893545       47.56726346231149
H           55.38446050434082       39.08559750692457       47.71808122044688
H           57.88670540326468       38.32310458843929       49.23483802691967
H           56.73733550614759       41.13533604595385       49.00060196999578
H           57.87970517890389       40.59731795912462       50.23389380546934
H           58.36568651813138       40.62312576998458       48.54797426397151
H           55.20211010711631       39.47388567168911       50.07016311191607
H           56.47855611344421       38.94027924869410       51.16064741932505
H           54.89121186904147       37.12390364791385       49.30135670316434
H           55.98828321930254       35.29462454550244       50.59598195756602
H           57.15390715889355       36.23335512770878       49.67182381766907
H           56.99716295768452       36.49026367280590       51.41111233724570
H           54.83200000318423       37.44478265545511       52.32533080722686
H           53.95830104800542       36.22566198905852       51.40173240112548
H           53.45765136251849       39.22422918869744       51.37216406481278
H           52.17654327394925       37.00444272177028       49.72166401220522
H           51.48835707361909       38.61665166646491       49.90519882494647
H           53.04067138270568       38.41735968793006       49.11059698088143
H           52.72644172490838       37.68100107300666       53.32475363820761
H           51.62263471510656       36.94666752922699       52.16865961858966
H           50.69041872372519       39.32003662576403       51.78492466598872
H           49.49476520177468       37.56166964219524       53.00675325942323
H           50.37961430166543       37.94103955074883       54.48264034870184
H           49.23957143675627       39.10388617542028       53.81655051684550
H           52.85345597186885       40.13531604955975       53.22935813106142
H           51.69249428116634       39.97913475391474       54.53154218324167
H           51.92099808614123       42.24913747201791       53.67969323869129
H           52.48521546348700       41.61751452322925       51.32046729531492
H           50.76747620342390       41.33718666981196       51.01825023243057
H           51.32818403252568       42.94139586794920       51.46467242085111
H           49.18301586317244       41.10259245042116       53.02971891343033
H           49.54561813262671       42.81463598974810       53.12388974501337
H           50.01202061977426       40.92550370784868       55.45579123923137
H           49.99270481345862       43.05437689795367       56.76238718743651
H           51.29402307045257       43.01515820205091       55.58914527433550
H           49.84437321406459       43.96313717855573       55.26341385346057
H           47.58144867557623       41.06417440825989       54.65404083572913
H           47.63950122410672       42.77701763528544       55.05076436253049
H           48.27685343655472       42.07249315991736       57.43260361086995
H           45.90921883224714       41.64079752504834       58.02153797214788
H           46.03229950145433       42.88459402485607       56.78110241692504
H           45.55593900691076       41.24475045550347       56.33870413802522
H           48.89099352580850       39.69536841195841       56.66379267845483
H           47.16611534208895       39.40209543587199       56.50601256770550
H           46.89548891378053       39.84261991767455       58.95014304082139
H           47.23659602590414       37.57632819526216       57.94382589821134
H           48.96708875753034       37.72028712946252       58.24531596447470
H           47.82954937600582       37.65931589629780       59.59631111555336
H           48.75510183871631       41.31452816608215       59.40620550969034
H           49.91129587039028       40.14515118020864       58.76872450755345
H           49.51132167007573       38.66875128300100       60.68302528343978
H           50.77591382802099       39.98893529113310       62.26150083017696
H           51.25058281799020       40.51301513209430       60.65360193602851
H           50.13569028453808       41.49575035526170       61.60696754941489
H           47.14047828746983       39.39839243577004       61.14968471831099
H           47.76665933287597       40.94291772368118       61.71741934380133
H           49.02125011909924       39.68029219811794       63.51749606795529
H           46.98135397515331       39.41393020613873       64.90923821293025
H           46.89175265211953       40.86279849358640       63.91708423804508
H           45.98526506797279       39.42088398529712       63.45478756658041
H           48.89976593478684       37.46037453154902       62.25692784050121
H           47.18893024198400       37.40574678974183       62.66660119088627
H           47.80784233922024       37.32834513099222       65.08774642283556
H           48.44802481473467       34.97216958036920       65.00056979718890
H           47.39044496586367       35.31877838482890       63.64171274778745
H           49.12905826550986       35.17660349011197       63.38356601830267
H           49.96086863022115       38.45498551872912       65.04041482008930
H           50.61058350904997       37.27332787504261       63.90837154599600
H           50.47211270644772       35.52356669291403       65.65783993026101
H           52.41273819427652       36.36852936873612       66.95284251697478
H           52.56113362168027       36.67464803405103       65.22310871434134
H           52.13038465985669       37.98796973935798       66.31237129325636
H           50.13743444398791       36.00913924207776       67.94882251582297
H           48.69726343479073       36.44854705820483       67.05834433119190
H           50.38999644074139       38.79841400031233       67.28692197953774
H           47.93293752841953       38.77457870908248       66.93283704922503
H           47.70563521744688       38.12869963367131       68.55990302416267
H           48.36748827335693       39.74658804468166       68.32832150677906
H           51.31319614723293       37.50049987176205       69.23828616184312
H           49.69027550370361       37.46972283257165       69.92366521767808
H           49.72496357524967       39.97676150777986       69.99421808916738
H           51.19377501290769       40.06351509333948       71.97707030627211
H           50.23921486825089       38.58176276170911       71.96111761494721
H           51.94137057721017       38.53603999053495       71.50176578612341
H           52.30839060064712       39.52615037717190       68.62586989546588
H           52.47029498435946       40.55646462081153       70.03385563103301
H           50.43021378584475       41.10486184676423       67.85305987767237
H           50.36134504985237       43.34099412356216       68.87627970916552
H           49.97866651766448       42.12841205339364       70.09210932568197
H           51.57958601284908       42.86155407667696       70.06107926623517
H           53.25913760408175       42.13889792500900       68.26276449632427
H           52.07492714681072       42.97489614689093       67.25937404693747
H           53.02839300131897       40.13957009466115       66.74765016091661
H           52.00410511644408       40.49008242632508       64.51105538158346
H           50.80032087618052       40.60943317141067       65.78963437450568
H           51.41495192093566       42.07076734810212       65.02829786039150
H           54.48907593282016       42.51955685255141       66.44459956655533
H           53.83397027223432       42.24887639452259       64.84728750863403
H           56.05727967528438       41.34296231772116       65.08826808119471
H           56.66175195043758       39.57500578724009       66.62505479078749
H           55.95671591521887       40.90409319577491       67.54380840451282
H           55.01724765474903       39.44499490229924       67.23272049514460
H           53.97725631372361       39.13445541537745       64.86733221746564
H           55.68089863693033       38.91805363904233       64.50144865020398
H           53.90978980344706       40.93802343173347       63.07162891012530
H           55.72881001156039       40.88706003849531       61.37690732322640
H           56.31928826371649       41.47483057401481       62.92602455679521
H           56.67083221075303       39.82091448034593       62.41931791173458
H           46.61053028415071       48.96817025887531       43.85376869277378
H           47.53537082883097       48.97280093871775       42.35151986992511
C           74.13657872006527       60.89461194756154       60.37008782691483
C           73.33549433940054       60.46530337180280       59.14198992953284
C           72.71553533739562       59.09218534106344       59.38915029349077
C           74.23578891196374       60.46566084729825       57.89929979400196
C           73.48100294779877       60.41583697709429       56.56392759763784
C           74.43459086792754       60.02149578354671       55.43651786864107
C           72.81732887379280       61.76491375673778       56.25207441234683
C           71.55998360468720       61.65839211737426       55.37734402111496
C           71.21937976808286       63.03391664346150       54.80693220409529
C           70.39706812329945       61.09922021186724       56.20318859360047
C           69.15790734507560       60.65301028519733       55.41808359876882
C           68.12095756633590       60.12962938540998       56.41268422622991
C           69.47868924562552       59.58124733751409       54.36129188268239
C           69.48455197623925       60.10386653172819       52.91954316297205
C           68.06002123218349       60.40375471511512       52.45157751869464
C           70.11129593861538       59.08171613107630       51.96309379872761
C           71.63974940610528       58.96993026679672       51.99964942851217
C           72.29257526782627       60.19815574959184       51.36762841492205
C           72.07926342246655       57.70225784543156       51.25030454754955
C           71.97329384422524       56.41792163437196       52.08849045125806
C           73.21734262742510       56.27205675581872       52.96238653666609
C           71.78323033791744       55.21205725663716       51.15865783805759
C           71.58476482756286       53.84600532124392       51.83287020418915
C           71.65842078037439       52.75693516335636       50.76143433448816
C           70.24317123134844       53.77253586158756       52.57246466147146
C           70.08114961396353       52.53440163409049       53.47696900722188
C           68.79005559053292       51.79249637566243       53.13146139577377
C           70.06115959085434       52.90049476829910       54.96733719958474
C           71.36279663428141       53.50096570553403       55.50775458830354
C           72.48339665134078       52.46068402858144       55.52727582039049
C           71.18645027289944       54.05518652874684       56.92991545960211
C           70.15308918796455       55.17664992642553       57.09942577715481
C           70.42480051700447       56.34203705794091       56.15131009158013
C           70.15892085968960       55.66775493383482       58.55517213533182
C           68.86926321817735       56.38057174162824       58.98824113050807
C           69.13289822460469       57.17642296524138       60.26657186122884
C           67.70784647720033       55.39341974949793       59.20706072949698
C           66.67392349824839       55.34164408394521       58.07450141798525
C           65.80344603190771       56.59467147257126       58.08121590861849
C           65.79108989173632       54.09567821091024       58.22519742118585
C           66.46308342142423       52.80029740569837       57.75081245462059
C           66.31635808404243       52.66231043277012       56.23680789182447
C           65.85636917232858       51.56894198637458       58.43661130978654
C           66.26156264890867       51.38141488108073       59.90592246887294
C           67.70153282310086       50.87495958612358       59.99934361696516
C           65.31138142182874       50.40056881263920       60.61871122591047
C           64.18501812277924       51.02647608348873       61.45616021303635
C           63.26018909974776       51.90421356442774       60.61405905695197
C           64.69175224842836       51.83068210022416       62.66212707316775
C           65.50675020816576       51.04610231127965       63.69577324605623
C           64.71089284563466       49.86545661712812       64.25318131871248
C           65.92601682772481       51.94085868503457       64.87189235157422
C           66.78685059377020       53.17135246766185       64.54694568574483
C           68.04223317707188       52.79293953757228       63.76658626123935
C           67.14402808374849       53.85352024239838       65.87590836832538
C           67.90942501193268       55.18376698300550       65.79548438288538
C           68.20490875284338       55.64964496445349       67.22183048486471
C           67.10315745529935       56.22061257810979       65.00443356795395
C           67.63171050763997       57.66203844484635       65.01471775840240
C           66.64443778616737       58.54525365167056       64.25352282653868
C           69.03556548068083       57.73795973122591       64.40170035519411
C           69.61901860146418       59.14790834429218       64.22133268452589
C           70.95405635294613       59.03987770449523       63.48392723340120
C           69.79483083730634       59.85194939183697       65.57153515139483
C           70.05292177867049       61.36479877247867       65.50552699151214
C           70.56330899884001       61.83045427972075       66.86964155891130
C           68.77365476342013       62.12010288276667       65.12181001863308
C           68.96440197138550       63.61734029586969       64.81590169571636
C           67.86708122857785       64.43328644862193       65.50302878054542
C           68.93003366512306       63.92611479030961       63.31294085446708
C           70.02563289236038       63.28469780350821       62.45389734205011
C           71.41052266141594       63.79130160863674       62.85791889939561
C           69.80685918235233       63.61566491311859       60.96801166972884
C           68.57889401262568       62.97633686553762       60.30926161795639
C           68.79619800799090       61.47736039860403       60.09869900835987
C           68.25409415967655       63.63727259034228       58.95938296843331
C           67.90169183329469       65.13055010827600       58.99876618790147
C           66.77574047377145       65.42417079612940       59.98828781140196
C           67.46694992598327       65.63686377590440       57.61429280094407
C           68.50702635235641       65.54926486342310       56.49137746872107
C           69.82758070090981       66.20315737281531       56.90230641400741
C           67.99816694562382       66.25111831635039       55.22214845125961
C           66.81255003356107       65.61005932914534       54.48234378283431
C           67.22213186741968       64.28245827118717       53.85100808880944
C           66.33317754099846       66.62273639180925       53.42870003001765
C           65.28256462351135       66.15542617146271       52.41193993673569
C           65.03567581950219       67.29234727966708       51.41822311160668
C           63.97561784762943       65.71632709827534       53.08013693517459
C           62.96817644630856       65.13865215523531       52.08589528227081
C           61.76304828352203       64.51666724846820       52.77871708246481
H           74.54077893395002       61.89607251415329       60.23789718053881
H           73.50622158424534       60.89289984617768       61.25700020476525
H           74.96557423830686       60.21060407865178       60.53958650968937
H           62.06827349211298       63.69461955018502       53.42186045498331
H           61.25128210980258       65.25365287135062       53.39242382525502
H           61.05956186087812       64.13327729651336       52.04273184262076
H           64.19865878202054       64.95315735503078       53.82816678253783
H           63.52786181052172       66.56578670985705       53.60192595276682
H           65.93819485575060       67.49801331432897       53.95003122833118
H           67.20996751756982       66.95171009652475       52.86355422895271
H           66.00187554101532       65.42447693459856       55.19279285938430
H           67.96650062350366       64.44451866905177       53.07380568876222
H           67.64926035356713       63.62368190602513       54.60311240151837
H           66.36597188558399       63.77681284768811       53.41211090194667
H           67.72688554797527       67.27572980645454       55.49208556101105
H           68.82852302321663       66.31564505210950       54.51372010898165
H           66.57723041848115       65.07935757632021       57.31412764136725
H           67.17626750362925       66.68516628818099       57.72257852304571
H           65.68621239610795       65.30404711077828       51.85459876098162
H           64.40414208085984       66.96524362154548       50.59674783353095
H           64.55490860823657       68.13325554752950       51.91357173940508