3864
 energy: -5104.224315582725 gnorm: 0.000930225168 xtb: 6.6.1 (8d0f1dd)
C           41.48892548159528       60.15118481271082       38.61440322384833
C           41.12358646254767       60.31755416575338       39.94546418367754
C           41.55672205909910       59.37865483850133       40.87346746021215
C           42.34566441251631       58.31244055803975       40.48507812440837
C           42.71563381678459       58.16726469895622       39.16002440395562
C           42.28102902113064       59.08721935848391       38.22273125355900
C           40.25760407502072       61.47972206766105       40.36092687679887
C           38.92347224182960       60.96235004276483       40.91026996538967
C           40.93968079258629       62.38286368572491       41.39887009285935
C           42.09346813126470       63.23013577700342       40.83405817882215
C           42.29780795992924       64.44307920165345       41.70841548272496
C           42.11467533039779       65.72166418120791       41.19816689048844
C           42.30104282364459       66.83872253751473       41.99430927589453
C           42.67125095758496       66.69354603330470       43.31988919951583
C           42.84486361832541       65.42368454993291       43.84441623791575
C           42.65610004019731       64.31114593321804       43.04518983717561
C           43.39611968148211       62.42617719560543       40.70088012120512
C           44.57020336783128       63.29667293501022       40.23336044150659
C           44.22551542225072       64.08209446753503       38.99162673420177
C           44.45749833723505       65.45012368910839       38.93684408338360
C           44.16418842791510       66.17767053544146       37.79627987163764
C           43.63370572817512       65.54381061187304       36.68629811413845
C           43.40538810007000       64.17828815650422       36.72547817749982
C           43.70185303337244       63.45470652264249       37.86583502694558
C           45.83667802814072       62.48032784754130       39.91770068646561
C           46.29475092202200       61.47603305202408       40.98509832360337
C           47.48707440082440       60.71640191831223       40.45087892448905
C           48.66185812998878       61.37017228864731       40.09518067144442
C           49.74136656353825       60.66784596276800       39.58872138176128
C           49.67006637334327       59.29391982434520       39.44487395265971
C           48.51158558348683       58.62921478713631       39.80414103364480
C           47.42800627133158       59.33769797296809       40.29437893961578
C           46.62815684701530       62.12545451688627       42.33602520795667
C           46.83989867349231       61.05618871524324       43.41672057788632
C           45.58531872457007       60.25172572428217       43.64982704709421
C           45.59254562301830       58.87170523929558       43.49601029273366
C           44.45505509358978       58.12149098390446       43.73762298351585
C           43.28236970690211       58.74605287801779       44.12125935729100
C           43.26188596266352       60.12145690180363       44.27968383650278
C           44.40686432923214       60.86398007553851       44.05962513428681
C           47.29955457362353       61.65365230450839       44.75768903494036
C           48.78522651783398       62.04242121380356       44.81496640007129
C           49.07743108103779       62.74349900476025       46.11849198610999
C           49.61167905552300       64.02626631802507       46.12548103797953
C           49.90941452085826       64.66803986389063       47.31537586393310
C           49.66386272285133       64.03878261809945       48.52340484725472
C           49.12019830231738       62.76502298543672       48.52971380170656
C           48.83685891198186       62.12059731038234       47.33900590201699
C           49.69456189455292       60.81679320518344       44.66737348969227
C           51.18957553998330       61.15041644656532       44.75610347403256
C           51.59615454015999       62.23038905905286       43.78606725387836
C           52.33288995158631       63.32336326180609       44.22763281167067
C           52.70858607171516       64.33195947572570       43.35823876891779
C           52.34461873705211       64.26963641874170       42.02510533527787
C           51.61994939825804       63.18154181019464       41.56985701000232
C           51.25774427948886       62.16810932051561       42.43922098241974
C           51.98885590229564       59.86299831941155       44.50626520686041
C           53.49753837441077       59.98198130641101       44.79197548216421
C           54.28202002527100       59.28419812304720       43.70834989793649
C           55.25904178135617       59.95396686927893       42.98661708178754
C           55.98783992333136       59.30509566538030       42.00471427495724
C           55.75619161413861       57.96714173507370       41.73908848024328
C           54.77744284793593       57.29023129694406       42.44806800132604
C           54.04438614912932       57.94425646447486       43.41973648611287
C           53.89450094918067       59.35866533303219       46.14050790361194
C           53.47225951281896       60.16156242461265       47.38163400207117
C           54.20062716783029       61.48055238378027       47.44699806367317
C           53.49378238466906       62.67520066590966       47.50978689281742
C           54.15034078457978       63.89498451145982       47.52453645608470
C           55.53199661924016       63.94159299080254       47.49903708537968
C           56.24786674627067       62.75687670137569       47.46730432749585
C           55.59040557072943       61.54114978312639       47.43897470623180
C           53.71431155850530       59.30528325745763       48.64647312643942
C           52.45782175447321       58.88135305786618       49.45435692964284
C           52.20833013705985       59.85208094580877       50.58439414608628
C           52.70785075276029       59.56210570921509       51.84975463297370
C           52.52629723890849       60.43040896284488       52.90942643496875
C           51.81465819996408       61.60297071226604       52.72985014552476
C           51.32269288359215       61.90988674618815       51.47471354692922
C           51.53062043549455       61.05113173736888       50.41009163380470
C           51.21177671988916       58.64924836470540       48.59204725740998
C           50.09402746019177       57.90465357442784       49.34545660521832
C           48.74537262173350       58.23793348694026       48.75477743312580
C           48.48975689063720       58.04045120194316       47.40225782729955
C           47.24238436187417       58.31038060156691       46.86858529366568
C           46.22330794624947       58.77494281921111       47.68138133398801
C           46.46355777240347       58.97539986097022       49.02873202942988
C           47.71831906648677       58.72082754965378       49.55534948619118
C           50.32274270810962       56.38655818834515       49.30076480159183
C           49.17011093423096       55.59056976645267       49.92311693860125
C           48.92627133137832       55.94430367227061       51.36817855056626
C           49.95336324668936       55.94545312955487       52.30434311334459
C           49.70878262126622       56.25531962390261       53.63028028880386
C           48.42585125760561       56.56494802271040       54.04932696948639
C           47.39205079137145       56.56395907553551       53.12821912296327
C           47.64355015130054       56.25986144116553       51.80159389951174
C           49.41765661293108       54.07970068247516       49.76422913262314
C           48.11850913875630       53.27301529395123       49.89492601608729
C           47.08600287682414       53.77971833255452       48.91470094817375
C           45.84743984226734       54.22717126804871       49.35663441312972
C           44.92311560254994       54.75268854321316       48.47045913062099
C           45.21955324376052       54.83950183903748       47.12212901737266
C           46.43902398123198       54.37204291045968       46.66272345904342
C           47.35729600667079       53.84358744785949       47.55133340130917
C           48.36410642285883       51.76812749042600       49.69225541306788
C           47.15862100249172       50.96006250277445       50.19584633008613
C           47.10588619312263       50.97853173647550       51.70283536181361
C           48.12097110701387       50.38695425243190       52.44710170758614
C           48.08039862430141       50.37938973433162       53.82796708211080
C           47.01484727915771       50.96417909230084       54.48886114215264
C           45.99044443973129       51.54332847410848       53.76241687860737
C           46.03990365309564       51.55160369880548       52.38035152495492
C           47.13608472217008       49.49867815140499       49.69934050458124
C           45.84018847305013       49.12032383479075       48.96385589236364
C           45.85294654888124       47.65236093845088       48.61618515885235
C           45.87627857488513       47.23503044889294       47.29230309831613
C           45.79226966753458       45.89140657376603       46.97202446885295
C           45.67672017502252       44.94923394380630       47.97725842006392
C           45.67736482918433       45.34720806707595       49.30224014046360
C           45.77427465958404       46.68892751937506       49.61697402414229
C           44.56974284370705       49.42219943184123       49.77268200292225
C           43.31151888251849       49.02564576114997       48.99155439826034
C           43.20679118316685       49.79188049016648       47.69639134886386
C           43.22657886150976       51.18171370371963       47.67073052671033
C           43.11963527037302       51.86900541237282       46.47605050720561
C           42.97212428503407       51.17896323596815       45.28515090325811
C           42.95288465269400       49.79643908182732       45.29766260684256
C           43.07546739905077       49.11103566005531       46.49258127699461
C           42.03920757863822       49.23514393883430       49.82448074533543
C           41.94536755122664       48.26722330554198       51.01984013996660
C           42.30993653873502       48.92881107652939       52.32480016458684
C           43.28276134276028       48.37799317284165       53.14871550987318
C           43.56604817046721       48.93501126633298       54.38215999524126
C           42.88382945060742       50.05905439351939       54.81040603198034
C           41.91648332058338       50.62466281862694       53.99675713716319
C           41.63250328585580       50.06086409887718       52.76599734004557
C           40.53121384995981       47.67622452451931       51.13693899788186
C           40.40627595277606       46.69818111378898       52.30967875594312
C           41.36901271820545       45.53903078070972       52.21089997127504
C           41.52144515055320       44.80226324824736       51.04175588034372
C           42.38145892100685       43.71801769407200       50.99322738079544
C           43.09908388647535       43.34283032598598       52.11608773880484
C           42.94822879686689       44.06527446732638       53.28671658747788
C           42.09262683846026       45.15065357872496       53.33138702315633
C           38.98816477005859       46.11847557420956       52.42817854514044
C           37.85278912458003       47.14726208397626       52.57491236885528
H           40.04258960689526       62.08602647683357       39.47262207680593
H           40.18304189828470       63.06676595276074       41.79444330256899
H           41.30416431547825       61.77624593884526       42.22855394184042
H           41.80203056445896       63.58300325887986       39.83831426611788
H           43.64106256644916       61.98606562543497       41.66805731466288
H           43.24106823270764       61.60800494544177       39.99841849646671
H           44.80282267072116       64.01402695558703       41.02804963585719
H           45.66251294092409       61.92059458124150       38.99426726873583
H           46.64242293727579       63.18992009152620       39.71355653293986
H           45.48168194292015       60.75983796357303       41.14550958150339
H           45.81762333422354       62.79165526789309       42.63372853886526
H           47.60835032207288       60.36844762844164       43.05473851382674
H           46.70008384743026       62.54119685044635       44.97836365983763
H           47.09990807604547       60.92218067055278       45.54455864104209
H           49.00263870524444       62.73748734692548       43.99670192379190
H           49.45033655021476       60.09855780876148       45.45261140839687
H           49.50576852077606       60.33697072811555       43.70796582777513
H           51.40186091660529       61.51596676790100       45.76434140184074
H           51.56123551060054       59.06726266359664       45.11913306311696
H           51.84492472020315       59.57592131586313       43.46175171516639
H           53.78305880001574       61.03936481414763       44.79740074669620
H           52.40966379645220       60.38352361910474       47.29744088604959
H           54.24481672047532       58.40019924305627       48.34395259387990
H           54.38298495927869       59.84395905109522       49.32302828150613
H           52.71058639030275       57.92186200416242       49.91836514267654
H           50.80412698523697       59.60178241827740       48.25203308403017
H           51.49838152007649       58.07450178348602       47.71013560565287
H           50.09698660414716       58.23266167810790       50.39119024564026
H           50.41512354164006       56.07973955657531       48.25624430079824
H           51.25994677731244       56.13932487491564       49.79843048004695
H           48.26330328749772       55.84134485822978       49.36142465759924
H           49.86461393799202       53.89322150841416       48.78620710096843
H           50.13485784563231       53.74527691129432       50.51639557578883
H           47.73515898911164       53.42196366907523       50.91194198481952
H           48.51776405019681       51.57137032583559       48.62976846524207
H           49.27007775459170       51.47305573642936       50.22415863682011
H           46.27545978195372       51.47262352519402       49.80467174260021
H           47.97412134595886       49.31914406729257       49.02168914658849
H           47.26438978109666       48.82624444338695       50.54957573096525
H           45.79329910668872       49.70216592000211       48.03513210301051
H           44.59699889202888       48.88819692922842       50.72243380165287
H           44.51757654983795       50.48384121555988       50.00873107256480
H           43.37728778280561       47.95991466417827       48.74489822786069
H           42.00713972084990       50.26711290865639       50.17615518868283
H           41.17671502305298       49.09219592956273       49.16775758557993
H           42.63657282818259       47.43381870475623       50.85203191059460
H           39.82382062220028       48.49467328732863       51.27319071083208
H           40.27311717163006       47.16501789234766       50.20831658831658
H           41.15065484217019       60.86752700061349       37.87687570330421
H           42.55960540708700       58.97252705653216       37.18465463946935
H           43.33453251927606       57.34226616524872       38.84368358787251
H           42.66835685730421       57.59786927351765       41.22805483620726
H           41.28380246323573       59.48056102408131       41.91322146469115
H           41.82831129370309       65.84565611972765       40.16277375547117
H           42.15737749037898       67.82538035287850       41.57721777193947
H           42.82009373510783       67.56450534436863       43.94173152275420
H           43.12694269407110       65.30360111424618       44.88096013956829
H           42.78434719679009       63.32568696292532       43.46543704162931
H           44.86595666884772       65.95501203418017       39.80162321501566
H           44.34754985770837       67.24259386834677       37.77492571484157
H           43.40013297569813       66.10950369755680       35.79586724649084
H           42.99353725298297       63.67595518363977       35.86128083028208
H           43.51534692727378       62.39046623722991       37.87912357240356
H           48.73863835767127       62.44210808877715       40.21111242442965
H           50.64290843059453       61.19014872588885       39.30078271176271
H           50.51680209895731       58.75062687644591       39.05270137653452
H           48.45915310665801       57.55596125159143       39.70513519785094
H           46.51898478174035       58.82033907097875       40.57063267120819
H           47.53230665647867       62.72930343443862       42.23905070442293
H           46.50079015253760       58.37392372594672       43.18568178215217
H           44.49248484673950       57.04773636461250       43.62382483847328
H           42.38902494377910       58.16898540676160       44.31444975649895
H           42.35014200589552       60.61588899314370       44.58727134238164
H           44.39046885962882       61.93309793547562       44.21844544664235
H           49.80633708126040       64.52691956237025       45.18643981405202
H           50.33289922864456       65.66320750548172       47.29927121667171
H           49.89713925342438       64.54030965703159       49.45245526626250
H           48.91515273584999       62.26579129484072       49.46550854434764
H           48.42039101975780       61.12410552898216       47.37201850525358
H           52.61634529778748       63.39264452551125       45.26762540973635
H           53.28031817549925       65.17413351765192       43.72422732848069
H           52.62213573099143       65.06536734682977       41.34698617842947
H           51.33681441557781       63.12631846968708       40.52826571029943
H           50.69779002294947       61.32764143591503       42.05666460459769
H           55.45227764394174       60.99833977773060       43.18947491792873
H           56.73050127981066       59.85651625877329       41.44655704745963
H           56.33467428146009       57.45205877700707       40.98421234470453
H           54.57910357898550       56.25086749470688       42.23425505343099
H           53.27113886353028       57.41058415820753       43.95276219252526
H           53.45100542872849       58.36290466108613       46.20068269016664
H           54.98045734445569       59.23418909997769       46.15573974123348
H           52.41140142096365       62.66113644808853       47.55407838175002
H           53.57839094771577       64.81349978049373       47.55495513070299
H           56.04924246420364       64.89127064112786       47.50897362278613
H           57.32787805668016       62.78596482722559       47.46245354997309
H           56.17121649984390       60.63014004458351       47.41560720930758
H           53.25453521492464       58.64219797306640       52.00852373279110
H           52.93785494005759       60.18963699067531       53.87892121659438
H           51.64472156805309       62.27434179124976       53.56087430763738
H           50.77904863056017       62.83179028262959       51.32019048947895
H           51.15618459243282       61.32898502135939       49.43696249002437
H           49.27562191627423       57.66881218275248       46.76229678974597
H           47.04763559327249       58.15669117258910       45.81661061654137
H           45.24938061892983       58.98313972811650       47.26185262852883
H           45.67173203422474       59.33262919067234       49.67011795967741
H           47.89957149142879       58.88773638620604       50.60851627744928
H           50.95911017900093       55.70149326693350       52.00076042747921
H           50.52394466277686       56.24671436387937       54.34069363559416
H           48.23569950708039       56.80274183604720       55.08745374610789
H           46.38367427411120       56.79958785497263       53.44238792065956
H           46.83088842737683       56.27418898759539       51.08827705719098
H           45.60743856435175       54.18104284587915       50.41107591041634
H           43.97311795421834       55.10802295650885       48.84264721867030
H           44.50929408536923       55.27581331945809       46.43318533570991
H           46.67402707703981       54.42916181642300       45.60899372785574
H           48.30709092906384       53.49013782709503       47.17725885363691
H           48.95886973486910       49.92328850497181       51.94632666695606
H           48.88393058877677       49.91770386376546       54.38499687243852
H           46.98927813138641       50.97919351580154       55.56830518263032
H           45.14802599199462       51.98718048207633       54.27342330666514
H           45.23917165891523       52.01332129195792       51.82007763570559
H           45.93523491687667       47.97360213759243       46.50554812602060
H           45.80512170465635       45.57642747935861       45.93856449536197
H           45.58147619573025       43.90388816914816       47.72959637523206
H           45.58288922310716       44.61173759790672       50.08993365866008
H           45.76449996340632       46.98991192026869       50.65502809737737
H           43.33713631078353       51.74140717381404       48.58892596870545
H           43.16316874168201       52.94896811181538       46.47754491976281
H           42.87066561568828       51.71616855106034       44.35463296764148
H           42.85652875727334       49.24461912145960       44.37370079384940
H           43.07101724716334       48.03039069342963       46.48849722985121
H           43.81055918692396       47.48706135506538       52.83539658465621
H           44.31060424763633       48.48013952844081       55.01730707405154
H           43.10125268915416       50.48217000527689       55.78044590372234
H           41.37093834810162       51.49756256804046       54.32867728749391
H           40.86366317683863       50.50486135378021       52.14827657230683
H           41.98247138258139       45.70417074372993       54.25401937446888
H           43.50003522018720       43.78737759506414       54.17291777946483
H           43.76326906940886       42.49004229125365       52.08077030144434
H           42.48757284301355       43.15315926046869       50.07705795866647
H           40.95723950009688       45.06622971205073       50.15929632969824
H           39.07521372926690       60.41228574724335       41.83581375150239
H           38.24716857115351       61.79074492341636       41.11119472856682
H           38.44935450862192       60.30005402703516       40.18796373886850
H           40.63873712815309       47.23755399456856       53.23336666981754
H           38.77960488914153       45.51849534779658       51.53929702299822
H           38.96529324604636       45.43915810949401       53.28468744147873
C           38.08986666084243       48.16217330096141       53.69611667996756
C           36.56861642914897       46.36896381548317       52.73056174218718
C           36.12408737614178       45.89059205182149       53.95731191748222
C           34.96567116240173       45.13902666679310       54.04810743732483
C           34.24146281364661       44.83360392429598       52.90729980214084
C           34.68418909320933       45.28612716593832       51.67576004560179
C           35.83245269720857       46.05303107581613       51.59437070705984
H           36.68385769352381       46.09685358970277       54.85719430653988
H           34.63280340582411       44.78118619067125       55.01353585915769
H           33.33723976484203       44.24343253593569       52.97679197843444
H           34.13973585434150       45.04039846340723       50.77520732824159
H           36.16840904878723       46.40528434491987       50.62884324985042
C           36.96139053749140       49.19855488204077       53.74505011340165
H           38.17616803603732       47.66182188074343       54.66199945863293
H           39.02928143983173       48.68844725150413       53.52018627343682
C           37.24218311628596       50.26646184837082       54.76093951280477
C           38.10297559302487       51.31408798635934       54.45784497816983
C           38.35896058450969       52.30631117712615       55.38543304780727
C           37.76883465756577       52.25900807700791       56.63718318010044
C           36.93850332348991       51.20111283548822       56.96075280210653
C           36.67205981250239       50.21736594340675       56.02470773865653
H           38.56059434328134       51.35779398758590       53.48047422185706
H           39.01952421075411       53.12365688859786       55.13567544199365
H           37.95776273405741       53.04357746481993       57.35472612771984
H           36.49578526459550       51.13678828568539       57.94565813708137
H           36.00920515037429       49.40491521011917       56.27808201264529
H           37.77819294145161       47.70160803655343       51.63455319005418
H           36.86976347119439       49.65769133702825       52.75649359370760
H           36.01936038186058       48.69884911666703       53.97701799340574
C           50.35903362018639       53.96400996442016       32.30150933867633
C           49.73726022966294       55.04706077266512       32.91663340974202
C           48.45642324095495       54.86869213286810       33.42412196334787
C           47.82244930819674       53.63979726940935       33.33976010263621
C           48.46341385475934       52.56451969054647       32.74882416234994
C           49.73488816352828       52.73131791086615       32.22510951262439
C           50.44915965018879       56.38023370172556       32.95921963392936
C           50.25583986164534       57.06730407597712       31.60247147063546
C           49.96905283954315       57.28154467395890       34.10357513770354
C           50.96034338060559       58.41235914414848       34.44395643454811
C           50.21243541060277       59.61916799957840       34.95189673059026
C           49.32347117488535       59.51755478686169       36.01541328509491
C           48.60949487669195       60.61674353820634       36.45389007967120
C           48.77777225257586       61.84463887793384       35.83808368851045
C           49.66083661497287       61.96150445199370       34.77862109212811
C           50.36690359861451       60.85559339339169       34.33821545798832
C           51.99889901284469       57.92047728979502       35.46130495205588
C           53.18103520062332       58.88034837947770       35.67180509582766
C           53.85377406984010       59.18716891378777       34.35885450240405
C           53.87205979040748       60.48675610625466       33.86748550467374
C           54.44323904313531       60.77577288905781       32.64038225074395
C           55.01882658615333       59.76650376069787       31.88696132672649
C           55.02036896783659       58.46999443823483       32.37217969778312
C           54.44292393688551       58.18529887946148       33.59556577944667
C           54.16417099685370       58.26034995764955       36.67649838883096
C           55.39013747769926       59.13875418853154       36.95964746634147
C           54.98079056336485       60.40778526362804       37.66522705269423
C           54.41953182337004       60.37001895387492       38.93777702127807
C           54.05093964046438       61.53373572903777       39.58633846511536
C           54.23442334962133       62.75987779453980       38.96936150998057
C           54.79722479611017       62.81261911723469       37.70588721411188
C           55.16859086684283       61.64460001057349       37.06164463225195
C           56.41409625318533       58.37284117806905       37.81387281268497
C           57.21794405536185       57.31226560878198       37.02962217159540
C           57.34707469934195       56.06521591873486       37.87138848873400
C           56.61364596060282       54.92744935986233       37.55909331425565
C           56.66821567633016       53.80456195382780       38.36492621173621
C           57.47081334666236       53.79325387438477       39.49188437166919
C           58.21278687939758       54.91795145069786       39.80884527241808
C           58.14478514912368       56.04422313636628       39.00977932823039
C           58.58506257073366       57.85952798003111       36.60155140116498
C           59.39197629776298       56.82954288866912       35.79942448080924
C           58.82199446268174       56.63637644582494       34.41728387513938
C           58.29427268270182       55.40630156872098       34.04402748439076
C           57.80516504962320       55.20162499681891       32.76564520269119
C           57.83685492198750       56.22904841498455       31.83916955086152
C           58.35329487587705       57.46222745975498       32.20136427129454
C           58.84005608349054       57.66309471325488       33.47990071471511
C           60.88022432787777       57.21561768106037       35.70925168307362
C           61.67044423246821       56.87729751103175       36.98643979052652
C           62.98710416745424       57.61258004105640       36.99737991102433
C           64.00663572300951       57.29317984387782       36.10846493389246
C           65.21593066777788       57.96186788996351       36.14534363580392
C           65.42619438996449       58.97530489270638       37.06473915798659
C           64.41211057992142       59.32109468855429       37.93923405312141
C           63.20711739562294       58.64353402808101       37.90169140955761
C           61.86524706281508       55.36464164193755       37.12981481144310
C           62.44741779465284       54.96344118775622       38.49731921707529
C           63.95214452520189       55.03107869786155       38.49525704695794
C           64.70653223633575       54.17910594764423       37.69729373440631
C           66.08760228135851       54.23740670500773       37.69668897626858