3795
 energy: -5103.079011211767 gnorm: 0.000961824846 xtb: 6.6.1 (8d0f1dd)
C          113.32614069383942      132.54644321316505       98.55480591556149
C          113.87571208934824      132.23603328022568       99.92833174543783
C          111.97574469216062      133.26262994678396       98.61044353826108
C          110.91033615623769      132.38688732356758       99.26368286642379
H          112.08598716414163      134.18244565376216       99.18646201650034
H          111.67049077608361      133.52649362057065       97.59630927489786
C          109.55575477555436      133.09761381190532       99.32994811085824
H          110.80618675034987      131.45112941138061       98.71017613127427
H          111.23890370487968      132.14611954269307      100.27475528132872
C          108.58698475758946      132.31954252495277      100.20150851542554
H          109.69211168163767      134.09489097268647       99.74938962415048
H          109.13323716690930      133.18427636842199       98.32820423900669
N          108.67196004760258      132.60545000176387      101.50431094667368
O          113.92813481572298      133.28251404784379      100.72936769795331
O          114.26050620753675      131.13530115419735      100.25847270840110
H          114.36722910298950      133.04085797920487      101.59680183131182
H          113.24654757704884      131.60964649226892       98.00149108265153
H          114.05556451580127      133.18703123094733       98.05398313350223
C          107.81338145017291      132.00579928763446      102.50321870450540
H          109.39955287800028      133.23067712574988      101.84552648830200
C          107.69247832911174      132.93412287933606      103.70597909162602
H          106.84255817350667      131.81943828488119      102.03741545510273
H          108.22296701935232      131.03984515834236      102.82793940971747
C          106.90065134268180      132.32241810113368      104.86142384933301
H          108.70226852294317      133.17087561045057      104.04936479481698
H          107.22398684414792      133.86926276061510      103.39456116110802
C          105.39584002598632      132.27247588962999      104.60120219465583
H          107.26099008633193      131.30880232779745      105.04981142119304
H          107.09258914973837      132.92171298179764      105.75228207095661
C          104.60601368979152      131.68955177080838      105.77420926264055
H          105.03251982087487      133.27953985629779      104.38311326860567
H          105.20628869678718      131.65026820252029      103.72673189646765
C          104.63255098482084      132.60127016543993      107.00068775360552
H          103.56838627835982      131.54767178053899      105.46310319553379
H          105.00947950051885      130.70956687145369      106.02919388430642
N          103.85275110642588      132.07909312947558      108.10267081147165
H          105.65030096631770      132.71011116685557      107.37796060303552
H          104.24886542169857      133.59209517360782      106.73304668531986
C          104.40075956740776      131.70871900918669      109.27262951225272
H          102.86007405893328      131.98170070001507      107.96221004840888
O          107.80603833932361      131.48749916878998       99.75393198344683
C          103.43226411634514      131.22832876254981      110.33122977127022
C          103.49423084594039      129.70153167918940      110.45566747172776
H          103.71682133247241      131.67870239199860      111.28401120054038
H          102.41519078427021      131.53988255096925      110.08732547082188
C          102.45812018124927      129.18146051027549      111.44954742248152
H          103.30375577559131      129.25839342474421      109.47550264601246
H          104.49585009241204      129.40026150442665      110.76354513554362
C          102.33435094403220      127.65403740179819      111.40475518909525
H          102.71337422393142      129.49808365655474      112.46288275712489
H          101.48756288266073      129.61837779470193      111.20127067449161
C          103.29871386157835      126.93206665836699      112.32973275203975
H          101.32966884818835      127.37298080095016      111.73103174745553
H          102.48222985147210      127.30248473091454      110.38452099254829
N          104.23327302869195      126.19986088247927      111.73641549751952
C          105.06831014025188      125.26978768562337      112.47297944656880
H          104.32184647505234      126.22193076346855      110.72586054212483
O          105.60608720458717      131.75127224965053      109.46503220495551
C          106.11951856079403      124.61810832572013      111.58722732369550
H          105.54969199018046      125.80487773063003      113.29621594817884
H          104.43236167124095      124.48694839157056      112.90404454275745
C          107.15433532926265      125.60623194009383      111.04742925223002
H          106.62468351399696      123.86467065697566      112.19437434298759
H          105.61806331296636      124.11027729223919      110.76333644113838
C          108.46918365005921      124.92905169351698      110.65597588678010
H          106.73916078824652      126.13711401818553      110.19191460115792
H          107.37759948147863      126.34346252369748      111.82296111590372
C          108.37050090389943      123.95570990568299      109.48061101324649
H          109.20358396824452      125.70028459278824      110.41038958860113
H          108.84872515401982      124.38745923586221      111.52555395358156
C          108.08331679283395      124.65464751594762      108.15717767725710
N          108.38105425398099      123.78162362007018      107.03727456749847
H          107.03582455077071      124.95844914904153      108.07941476934307
H          108.70064856564748      125.55977002273278      108.08191644448490
C          107.98642399777405      124.08199011100568      105.79523725562919
H          109.04477390490221      123.03568982845010      107.20756998184427
O          103.16330497808511      126.97798107936130      113.55797617082062
C          108.44986174668101      123.13725544945969      104.70116333095280
C          109.97461132024043      123.06406373393698      104.58488264373919
H          108.04963105713581      122.14295151430042      104.90657041128458
H          108.02314961631157      123.49164435470746      103.76066589113968
C          110.43158386821482      122.21435791909805      103.40096313236880
H          110.38367876572556      124.06929402105551      104.47002004643566
H          110.38813011117870      122.63296580813416      105.49610946440720
C          111.95635906338410      122.25060448575448      103.23525875788883
H          110.11979769379430      121.18089784874448      103.55472306933598
H          109.96112075773519      122.57282218202292      102.48384001870694
C          112.41097862644168      123.60698141825185      102.72911500434169
H          112.43845263126488      122.03876555833668      104.18995295425752
H          112.26311096548694      121.49342998314211      102.51325951688445
N          112.09701390750560      123.82115251509084      101.44503914341612
C          112.40380307847562      125.04445695770760      100.74055067639610
H          111.78760447645384      123.03583021330216      100.87669059312303
H          109.32727975460038      123.43831899406354      109.38122167432992
H          107.60432263103132      123.20554469089974      109.67626746190085
O          107.29095410869219      125.06747084152951      105.56025207703767
O          112.97648889694784      124.43957484895429      103.42962610320795
C          111.42079064154620      125.25893997677642       99.59257426364915
H          112.36865516937594      125.85926273229825      101.46977156713544
H          113.42044507000300      124.99063747709242      100.32931881250072
C          111.83481128520133      126.39784602601480       98.65981393618443
H          111.38755962967512      124.33437210696219       99.01175896880513
H          110.41918395857456      125.43753537859605       99.98414562081567
C          111.71780694870745      127.80169292385867       99.25899636558712
H          112.87214389031345      126.23992015172922       98.35239950296834
H          111.22310860088635      126.34890843853115       97.75887382781985
C          110.29617516427608      128.21459030219427       99.64066045980917
H          112.35064842799692      127.87715202219348      100.14571878170835
H          112.10611064355497      128.51597261551095       98.52918983474099
C          109.32276068661329      128.18462856752305       98.45926292566297
H          109.91460093159742      127.56300243368372      100.42684714146188
H          110.32693772071468      129.23259425252274      100.03824557513079
N          108.04771090535536      128.76995821870696       98.79750200783343
H          109.75310301501818      128.72817809418945       97.61084475238377
H          109.11858827007455      127.15451684912890       98.15961721724300
C          106.92772340632925      128.03705353869427       98.95362890240746
H          108.00925979724808      129.76942913136958       98.96561488244281
C          105.69339429577641      128.88730280281308       99.21336637541438
C          104.63187184143158      128.15746585058591      100.03524608110210
H          105.98831432597757      129.82304399919843       99.68638206807385
H          105.27237858065033      129.13530292388597       98.23532122556861
C          105.14967172389197      127.65433562823691      101.38203224070485
H          103.78327136065010      128.82782244011722      100.19006930737582
H          104.28446354488403      127.29280710398194       99.46702103937344
C          105.72263297017328      128.77284928669332      102.26079107651354
H          104.32657556452578      127.17335929736326      101.91623705963430
H          105.91036753179137      126.89825846118605      101.19467377682125
C          105.99241840011376      128.24230154949745      103.65167625696802
H          106.62893538370008      129.18039674259845      101.81450563264166
H          104.98597443971622      129.57352419843414      102.35090160667205
N          107.02202242373446      127.40699510334746      103.82433232702647
C          108.02249849371535      126.98629774513998      102.87217161614892
H          107.04802817478352      126.88147590004084      104.69481886356786
O          106.90862359247151      126.82195411368437       98.86267392882880
C          109.34494806589073      126.72396867286572      103.59581171721854
H          107.70893379211462      126.05787093314777      102.37840916966708
H          108.14328845403385      127.74989965695471      102.10311233195716
C          109.95900417386991      127.96094059932759      104.25080571812937
H          109.14999115573474      125.98543137455262      104.37159975760949
H          110.05765033798085      126.29242959368710      102.89098962574865
C          110.52677983881377      128.94828747060197      103.23763046734392
H          109.20451451892683      128.45502996858272      104.86501640695258
H          110.76653160645927      127.63275018141303      104.90912315099692
C          111.18805848171546      130.15595806047475      103.89621573577183
H          111.26427295031546      128.43695863534734      102.61634590829232
H          109.73008872551679      129.30013300916801      102.57993247850419
C          111.65692209414661      131.13554968418987      102.82264413040292
H          110.47927804165850      130.65568382681508      104.56077240450094
H          112.04346893646829      129.83646680634087      104.49400226748983
N          112.38947466975767      132.25283421045859      103.36939774528115
H          112.29032569010401      130.61134316223871      102.09881821218477
H          110.78961358294175      131.54161687987354      102.30130003490186
O          105.26843980575360      128.55776427384453      104.59458275064621
C          111.99886115159919      133.53214836335894      103.25012524935872
H          113.25854596905131      132.03528968493598      103.83347751989416
C          112.93150192358495      134.54494596928410      103.87983852714142
C          112.35402045227764      135.03097152588768      105.21599746339702
H          113.92515905066040      134.12121434451009      104.01457918885845
H          113.00272491395999      135.39534895647009      103.20072091986881
C          112.21966473628362      133.92679202171669      106.26386191909448
H          112.98833255511123      135.82814508495733      105.60807188316997
H          111.36536486995263      135.45329696049177      105.02520161966456
C          113.56595306528125      133.40722276175197      106.77850878746682
H          111.66666170191762      134.31957173595146      107.11947740620347
H          111.64478246460754      133.09499680487005      105.85049648306243
C          113.29904667645994      132.37912965151094      107.86246468494033
H          114.15133328274891      132.96192049475866      105.97497496783542
H          114.12326454439150      134.23822194606137      107.21423234331336
N          113.43897131347730      131.10246458003010      107.47267373948863
O          110.95788980450921      133.86121185899913      102.69933727148994
C          113.20820489567346      130.00201600246498      108.38295923855532
H          113.86312389281773      130.89297920083837      106.57554234428594
C          112.73532934457101      128.75071426134841      107.65329695034863
H          114.12496438838980      129.77373457150426      108.94058342000480
H          112.45398832774910      130.33801215964945      109.09981610766131
C          112.29624390525328      127.67620217303464      108.64676420532165
H          111.89609862740592      129.01395003639826      107.00540934442581
H          113.54261820237738      128.37337737509367      107.02440347080200
C          111.76929900897420      126.40666576557432      107.97780705204464
H          113.13044892034867      127.41500803403871      109.29964080027325
H          111.50779199763488      128.09377797799416      109.27417087516538
C          112.87439540238921      125.48443016801784      107.46747671908928
H          111.16839189189589      125.85575922380521      108.70253521305693
H          111.11598587626207      126.67619980232466      107.14452567711949
C          112.28636196920040      124.21382745469424      106.83046122616940
H          113.47826756481844      126.01462855474230      106.73175687160591
H          113.51951485238820      125.20187650826229      108.30077805092934
N          112.72108363310666      123.00584045070339      107.49809257834818
H          111.19820683075940      124.24114752979010      106.90160685149544
H          112.56860263580262      124.15978609933831      105.77485793310518
C          111.91515620077050      122.07365389074944      107.99648939860307
H          113.71512713301527      122.81146457482268      107.48100312702316
O          112.93542073541175      132.68924513584417      108.98562280694131
C          112.62391663459208      120.91363306114755      108.65884416040993
C          112.90318889410983      121.24789489611700      110.12879659167803
H          111.97940965980696      120.03438083778259      108.60646814104369
H          113.55930645709290      120.70683964020681      108.13994654672499
C          113.47069449891633      120.03478905983209      110.86513875880144
H          113.60599275601676      122.08142651285569      110.17964458163001
H          111.97352960654581      121.56324562925457      110.60588754144588
C          113.93601278171951      120.40182114088957      112.27389813380617
H          112.71088937101774      119.25372103287877      110.92908697830320
H          114.29658524279645      119.63679046323500      110.27599205007144
C          114.43480232879425      119.23985820072382      113.11429484206381
H          114.73795164550577      121.14098768959569      112.20992073876707
H          113.11993693225391      120.86390587411330      112.83353601479273
N          115.02084881822520      118.24355412936390      112.44428111585331
C          115.33725537843713      116.96448054413224      113.02608075866637
H          115.21319006166215      118.32750987470035      111.45260902517977
O          110.68124338707543      122.14360259764433      107.96629064884873
C          114.37426173770805      115.88928633033484      112.51138624288863
H          116.36519490577076      116.69922126894203      112.75957631425146
H          115.25394525511538      117.05918323279050      114.10897380154096
C          114.90505500932099      114.48271804505576      112.76812735700264
H          113.40385235520050      116.02048820998171      112.99321879401073
H          114.24071443657712      116.03414649514221      111.43666216445023
C          113.91511254147805      113.40174438632985      112.33449208030453
H          115.84005480157205      114.35426476026197      112.21704475796939
H          115.12757142546947      114.37015242559102      113.82983271946942
C          114.54902094096148      112.01318364674211      112.26798661202417
H          113.06908347776793      113.38604528462122      113.02425726160588
H          113.53206350024865      113.65545925763519      111.34350756563299
C          114.95907381710003      111.48978751712896      113.64190367650470
H          113.84631424642093      111.30934513366689      111.82331455636523
H          115.42914728996807      112.04316845912533      111.62216765544966
N          115.67540697700889      110.24613265316370      113.50277541223203
H          115.60084737868252      112.22291749247715      114.14502377188477
H          114.06858093784562      111.34209756743854      114.25831682456462
C          115.83989046833786      109.27512849095334      114.39895995679245
H          116.17193586625859      110.10028607776100      112.62142886117093
O          114.31499126407250      119.23860636720978      114.33597126143982
C          115.12817966103471      109.37869576700265      115.72965936721255
C          115.75012333235851      110.37129875550174      116.71951621147429
H          114.09234674282823      109.65463712143472      115.53185761241085
H          115.12225231804643      108.38060085161119      116.16552564094813
C          117.09787773184289      109.91148206761305      117.27963663916937
H          115.89735438169481      111.33605476611181      116.23427365189072
H          115.04992244206490      110.51479616474698      117.54622502140812
C          117.66323962245309      110.95664455097757      118.25438840046107
H          116.98512696880422      108.95670454811378      117.79565791590308
H          117.78051630072470      109.75172510491410      116.44550337050900
C          119.17607040386970      111.04814473486803      118.31145774531792
H          117.31927666315812      111.94641909184035      117.94303724197327
H          117.30891472988171      110.76808982016571      119.26766444566803
N          119.75696924785281      111.11807110482873      117.10095557410065
O          116.53972972796792      108.30337221766891      114.10931219922564
C          121.17854109981930      111.27853197421635      116.90745724673552
H          119.15378631768390      111.32707717138328      116.31572577715379
C          121.47980127797261      112.48531562269157      116.02421896121169
H          121.62951820130938      111.39297347903648      117.89685495568084
H          121.59281250815081      110.37196075238948      116.44781288772083
C          122.97101119489929      112.61462257838278      115.73259550255788
H          120.92665299030659      112.37975425635550      115.08938817358955
H          121.12422105639101      113.38866827453468      116.52451160252505
C          123.31545282911928      113.91194886768736      115.00552297559057
H          123.51423291371410      112.59673679144775      116.68027018678849
H          123.30965550050755      111.76189895693118      115.14362207693927
C          122.82075486265072      113.99125456766673      113.56384201269208
H          122.88256806511431      114.74827270455883      115.55797080081911
H          124.40041136218871      114.03589793703573      115.00540077634678
C          123.53902277713142      113.01640284153449      112.62813603538552
H          121.74197194508250      113.83742187001397      113.52702678741589
H          123.02240351218070      115.00173213686691      113.21007849596378
N          123.68063443880473      113.60322485321051      111.31096572194244
H          124.52738987387220      112.78534343877915      113.03768650411345
H          122.99114657819685      112.07907106843325      112.51420902392231
C          123.69011421847456      112.87886234294153      110.18326303336856
H          124.00517139501829      114.56729499959958      111.30747987843407
O          119.80612913687973      111.08663005563987      119.35755883137118
C          123.81367844630732      113.69281754812110      108.90488145989183
C          124.96738830915724      113.19436963043010      108.03138799161148
H          122.87650306852589      113.57663229007352      108.35275584834663
H          123.94649331602980      114.74700967741477      109.14544567113559
C          124.92112747786713      113.83047810553177      106.64229327689971
H          125.91533714728641      113.43672640084311      108.51752284210725
H          124.90331540500161      112.10789631958671      107.94754131411493
C          126.20324897355428      113.57888603781106      105.84867578403014
H          124.06790172775563      113.42798472709481      106.09431296958405
H          124.78178307962101      114.90475805410277      106.75185176968776
C          126.12617164975968      114.10321388373167      104.42035766874055
H          127.03858656396909      114.05396540341697      106.36629310981685
H          126.38438757341893      112.50474726738038      105.78644161385293
N          126.32479741314023      115.42480327895471      104.28397695385807
C          126.36968809777122      116.06911625047803      102.98519405171903
H          126.46056626796270      116.02425825263556      105.09420956937694
O          123.55927820129776      111.66218282151557      110.16673693454312
C          127.21239110888266      117.33840132525968      103.06126630097570
H          126.79979635902014      115.35685258439811      102.27367046500677
H          125.35230390724685      116.29637068606635      102.64474974284748
C          127.48037483940222      117.99602650759778      101.70569906078182
H          126.72718813524590      118.05063065497596      103.72848721622113
H          128.17599462449616      117.07926263568766      103.50621566162665
C          126.24291814985352      118.47527079588858      100.94336011238784
H          128.13531627920278      118.85363619417028      101.87474257340547
H          128.02059793367789      117.29016327664199      101.07042597437383
C          125.38381688064571      119.46433309781996      101.73037806728874
H          126.58085728506401      118.95552875475310      100.02255804648263
H          125.63230012608375      117.61761002324411      100.65352086689096
C          124.29058389077545      120.07121668127299      100.85591376753855
H          124.91150967162974      118.94209088550036      102.56127100794076
H          126.00666043561382      120.25794938204251      102.14585554711492
N          123.16054110719726      120.51191178952602      101.65515252372747
H          124.68378101550232      120.91149596388300      100.27376269555879
H          123.92391542755217      119.32804225679227      100.13701219533716
C          122.04260615781077      120.97852362897810      101.09195991165403
H          123.23185908277789      120.46166482995876      102.66641302465973
O          125.92453030199020      113.36620832160818      103.46968391291976
C          120.87091282376292      121.17496907899285      102.02714607333172
C          120.18002388768583      122.53034761156756      101.86294320258222
H          120.16142921500010      120.37797826819285      101.77915748436880
H          121.20417533552640      121.04513101223114      103.05467594872870
C          121.01203215512845      123.66625833852413      102.45457416901384
H          120.00477287643578      122.71299958699889      100.80027684903976
H          119.20774832454990      122.49346288220237      102.36274950142821
C          120.26547883688070      124.99806882029603      102.45685666901595
H          121.29854368527502      123.42016826277498      103.47932938189450
H          121.93041413592807      123.77372551911600      101.87909515028198
C          121.13082261918946      126.14703530110951      102.94846720930050
H          119.92125464195092      125.24557291547103      101.44967615845705
H          119.38211434553985      124.94409354581882      103.09726968507012
N          120.49120943451661      127.31776715749348      103.03438371359890
O          121.96314326702253      121.16912675159521       99.88005352860974
C          121.16067580332081      128.52234857444870      103.48021811315176
H          119.51426609228692      127.37709062392089      102.77145808247138
C          120.16594306514178      129.56977953437431      103.97079435094597
H          121.85351027916724      128.23793412388480      104.27839583856026
H          121.76123199320773      128.93710045087010      102.66023255421379
C          119.53087987586825      130.33720428738121      102.81385929674767
H          119.38514297592667      129.07925036382522      104.55507510681605
H          120.68719423610538      130.27158632673692      104.62497978877390
C          118.52288706981666      131.38118888715201      103.29013897011993
H          120.31618328536405      130.83772760849280      102.24240556177972
H          119.03347017337117      129.63166075172637      102.14554059678797
C          117.99307922971738      132.20831894356732      102.11945556220674
H          117.69836680655209      130.87930253769491      103.80141430259404
H          118.99762878374928      132.04705546046770      104.01505268175669
C          116.77793595401810      133.07154634049522      102.47595018915864
H          118.78976473626037      132.85634981040641      101.74952083591552
H          117.70832395407638      131.54016006366967      101.30126328483988
N          115.54300367422813      132.31684888088259      102.68900051838894
H          116.98306577973717      133.66222857300812      103.37190414907947
H          116.59677170322169      133.76826194327390      101.64997625575900
H          115.50764306946634      131.55138326596085      102.01597546735078
H          115.54364462397214      131.88127660369210      103.60922700788977
O          122.31369182461231      126.02205330518206      103.24658358146031
C           94.75662122116118      117.82699337939317      121.11901290513980
C           95.96835078694400      118.63930544453450      121.52696299294229
C           95.07583021316759      116.42544387130337      120.59350744291895
C           95.48787266596651      116.39991159987785      119.12090710095880
H           95.86122310032633      115.98271382585537      121.20689184185996
H           94.18165981739337      115.80856089660159      120.70332103562463
C           96.88968693233099      116.95807802350372      118.84457209971288
H           95.45713467088530      115.36782440173536      118.76387602096342
H           94.76092036041926      116.97218600361086      118.54008040013255
C           97.96110359893348      115.98358429989452      119.30308250224446
H           97.00482118110193      117.08520102460666      117.76619515486269
H           97.01706819809573      117.92430997787505      119.32957780945476
N           98.43520072823935      116.19374670874586      120.53093556745655
O           95.77537102451848      119.92783237037401      121.40016053651962
O           96.99810279855937      118.15176832883537      121.94805689104088
H           96.59132857084194      120.45474031473813      121.68469565185728
H           94.18461153888494      118.40369111040788      120.39152393253298
H           94.14746004340012      117.74209293815473      122.02344423868789
C           99.45222278246756      115.37364305178319      121.14937265669784
H           98.05694160015035      116.95037558827462      121.09349595102806
C           99.29432401172856      115.34612031154161      122.66704082567416
H           99.38353213340930      114.36904282985881      120.72317255571012
H          100.44259225114573      115.78206706873247      120.90343153411240
C           98.01056659310720      114.68526733067402      123.17305472392505
H          100.15704246843177      114.82715465480294      123.08971021628959
H           99.31815929717533      116.37448616766372      123.03444107482792
C           97.82649897532268      113.23477915587461      122.72439109090928
H           98.03312957053841      114.71585058477038      124.26507757153338
H           97.15149758775753      115.27807803891740      122.85561034427020
C           96.74828777769389      112.52886028602508      123.54407042811830
H           97.54877529680722      113.20144003962257      121.66954959553142
H           98.76182674985451      112.68918316098913      122.83881278903033
C           96.53974628289781      111.07394284506051      123.11770662322670
H           97.01761672552821      112.54952401252881      124.60258026519141
H           95.80110404826580      113.05997356208366      123.43006120538215
N           97.60036493242995      110.18938401185994      123.54647169837396
H           95.59267215109197      110.71048733635966      123.53396099658175
H           96.49649006875681      111.00270078322009      122.02781109833087