3795
 energy: -5103.664012783812 gnorm: 0.000874753264 xtb: 6.6.1 (8d0f1dd)
C          127.66058136715519       99.47628031245542      110.59465216826821
C          126.37575142132563       99.97519858695142      111.20691704460771
C          128.39088811579953      100.63063303120700      109.89499916700815
C          127.54981179271412      101.22368087956963      108.76669873490204
H          128.61769403668228      101.40463379968752      110.62960722903911
H          129.33434767737040      100.25955229048790      109.49398846253744
C          128.19948068327673      102.46164429893507      108.15162893870109
H          127.39430999136343      100.47517805984241      107.98717581338666
H          126.56157442290107      101.49304767600897      109.14895411721645
C          127.41696965054484      102.96638026674691      106.95917151490585
H          128.27759264646116      103.25359395236441      108.89880461713609
H          129.21263200953643      102.22710058803167      107.81817126545478
N          127.82757122346177      104.10651195568579      106.39307186518546
O          126.56557435940104      100.95713989428882      112.06647842824242
O          125.27618100492205       99.53402959860499      110.93845519916002
H          125.72720973932779      101.47432278359116      112.23438205378962
H          127.42483998778391       98.67878163865801      109.89012418668887
H          128.28915068896086       99.07311403165563      111.38950278843623
C          128.94031725100211      104.95661028539561      106.75963361965479
H          127.33676343620166      104.37816611631108      105.54978756292584
C          128.73026652632493      106.36648232915084      106.20854249674034
H          129.03476402445330      104.98998980802337      107.84661131932930
H          129.87427477500694      104.54330791065617      106.36123105551496
C          127.44092554982636      107.00776594032325      106.72078310353220
H          129.58443564807055      106.97498302731631      106.50687100536415
H          128.71169154534630      106.33017122792806      105.11775095644879
C          127.25683177937017      108.43592208493857      106.20645117745278
H          126.58385455308891      106.40620077556393      106.41232967691873
H          127.45044054650279      107.01596442036617      107.81059788577258
C          125.85382889340168      108.95151482621664      106.52233197117039
H          128.00126262940631      109.08769994965273      106.66686537946707
H          127.42249756817650      108.46241603474498      105.12817958921005
C          125.66190874738218      110.41217646026070      106.13544097398125
H          125.11345440111104      108.34165652019904      106.00346689600642
H          125.66631927867205      108.85369019078831      107.59201550490354
N          124.34169841754336      110.87543148939166      106.51438303633934
H          126.40892248594747      111.02864460334132      106.64817878467082
H          125.78707916440895      110.56692883693017      105.05982293531589
C          123.72419725231960      111.90172849397945      105.92179984858049
H          123.83178352820579      110.30615160330184      107.18240344618502
O          126.43746256213237      102.36953023498442      106.50931361229307
C          122.40006455019655      112.29761311112907      106.55640184525303
C          122.49404726746781      113.74838525424605      107.04281466022815
H          121.60923201305553      112.21831227836611      105.80701429162542
H          122.16106092541143      111.62499274465480      107.37937353202793
C          121.16359736123269      114.24726536789200      107.59466176520435
H          123.25726555517012      113.82005294228345      107.82091028446682
H          122.80897724519687      114.37368339496265      106.20558464798943
C          121.19338622843765      115.73372410903515      107.97863777525994
H          120.37542413288429      114.09274266035148      106.85400043018232
H          120.90147042499581      113.66043362598811      108.47843407700434
C          119.82866038543187      116.07685059549480      108.53371190864158
H          121.95870889163672      115.92670238666473      108.72703042916200
H          121.39910694464682      116.34597535843344      107.09982063977657
N          119.77538264003471      116.26789833384368      109.85239552748375
C          118.51724099824497      116.29789235171830      110.56043802513724
H          120.60669646612250      116.51435149081220      110.37405437072265
O          124.20275915366608      112.52421372134411      104.97829050232551
C          118.65915724288949      115.86506397762186      112.01954636111392
H          118.08985209455227      117.30867833432619      110.53229106012924
H          117.83994606942015      115.63076295829704      110.01901574573928
C          119.61758388559213      114.69626030950238      112.24430503846894
H          119.03546320320321      116.71110236440052      112.59790278548097
H          117.66631252220753      115.60830938495647      112.39243674384903
C          119.32822619011681      113.43768927050644      111.42927258791387
H          120.62943161237450      115.03307206066393      112.01788969661287
H          119.58116971039020      114.44180852585970      113.30653135083278
C          120.30728388258184      112.33599241104447      111.83008656753016
H          118.30648500198862      113.09672216899538      111.60111725276455
H          119.43623940127314      113.65165151211292      110.36555421212897
C          120.17523322468362      111.07034111273833      110.99503651662646
N          120.94970300909047      110.01088978640257      111.60609254138082
H          119.13010150611805      110.75361812790250      110.94385273683736
H          120.51507752233803      111.24240963612834      109.96605819247887
C          120.79271187146672      108.71929287793839      111.32709949492443
H          121.62671114165570      110.28924137490306      112.31101884491444
O          118.81753648695394      116.05744806760258      107.82532694701183
C          121.57844423950736      107.79327833655078      112.23613370505346
C          120.78230925960065      107.58578872705280      113.52824539554004
H          121.72328858642398      106.82888366477361      111.74879477261999
H          122.54670577755233      108.24024360156805      112.45961662139531
C          121.48245917889919      106.63758949404384      114.49613915754672
H          120.61784834758220      108.55086243549944      114.01059685932429
H          119.80785898950791      107.16381721492178      113.28093730440375
C          120.73367334562214      106.57677656597990      115.83198232076174
H          121.51483384048350      105.63952676003640      114.05535164394148
H          122.50718503306001      106.96592157542219      114.67060442246570
C          121.26368371689533      105.43143952990772      116.66462646835004
H          120.85876766389532      107.51349824339356      116.37472843665267
H          119.67441186272612      106.41797940753911      115.63511432615347
N          120.78484440320690      104.23805570813549      116.31128904032224
C          121.26819421739512      102.99936494811138      116.88703764189951
H          120.06910742738771      104.19570122936499      115.59547028461908
H          121.32875691859196      112.71139006394181      111.73965113010192
H          120.13409621555788      112.06855984894368      112.87445245524030
O          120.03245084587614      108.30693752608029      110.45082918877635
O          122.08815345774022      105.58125421149278      117.56703722003444
C          120.51808062914506      101.79257716778052      116.33792583558628
H          122.34138428464422      102.90814687750012      116.68666393112321
H          121.14940711955418      103.04218358141887      117.97596925403714
C          120.62070187760915      101.61955708082695      114.82061303477163
H          120.91103546642304      100.90177489493988      116.83003895516198
H          119.46498263499637      101.88598720714516      116.60916049312431
C          122.05355500140679      101.44878970184514      114.32276752961938
H          120.04038809019434      100.73717186835125      114.54794661403162
H          120.17768645932557      102.48213111332655      114.32167793155459
C          122.12424182583408      100.98423961632790      112.86727800571826
H          122.57602727262380      102.40246924291746      114.40391399310559
H          122.57023680830405      100.72361052303081      114.95261217785489
C          121.87229207372376       99.48357082111126      112.71978535479515
H          121.40314781262695      101.53780989610681      112.26478101962478
H          123.11607146440150      101.20383143143945      112.47102191960805
N          122.28748945100907       99.00698396725001      111.41668141792512
H          122.43651826693772       98.94044368205184      113.48646218917146
H          120.81427199204583       99.23783802839858      112.82616455964040
C          121.49483759201271       98.33510839609794      110.57831443649526
H          123.25492005565214       99.17423280928324      111.16783837576587
C          122.17578337942922       97.85914323214530      109.30637803643835
C          121.20445566232928       97.79496824554775      108.12930073409250
H          123.02472455720827       98.50430180500730      109.07674653062121
H          122.56212830814532       96.85584117893582      109.50556482697513
C          121.84814470884912       97.18024466262570      106.89000997693775
H          120.33184248885608       97.20446413963160      108.41698054675615
H          120.85510200882271       98.80286131436371      107.89570790890400
C          120.94343544732979       97.30571627681029      105.66283458970044
H          122.79809021046876       97.67714961920807      106.68258112164719
H          122.04866091551217       96.12250420106865      107.07080388075575
C          119.65640188105479       96.52024834314008      105.84206512038854
H          120.70849840408982       98.35054157714281      105.46903581785398
H          121.45942659048617       96.89123654724122      104.79450039605229
N          118.53628774893811       97.24153574026646      105.70041452508164
C          117.21178542823421       96.66541623695868      105.79452906708028
H          118.58868093753168       98.23249568503303      105.49632074497208
O          120.31097634520107       98.10219614017986      110.81770878208710
C          116.23266973379035       97.62671974201419      106.45718766582505
H          116.84862106985295       96.40368119413449      104.79246624653028
H          117.30316904539181       95.73828301781798      106.36878760183784
C          114.89084460822855       96.95228137843070      106.72646260190353
H          116.65537488068172       97.97945209332813      107.40037390831736
H          116.07892150043979       98.48575979187494      105.80236169792107
C          113.90431476291079       97.91422095039610      107.38245493320717
H          114.47773722816515       96.58070201246979      105.78657107047921
H          115.04841963048374       96.09265112845534      107.38295063706840
C          112.61734286412559       97.20534183399836      107.80047577986836
H          114.38433158514391       98.34954257217504      108.25891754712087
H          113.67189956227493       98.72171484084683      106.68569698831243
C          111.69138106116826       98.10996373713002      108.60371713313918
H          112.08748222990039       96.85985767909220      106.91162329196661
H          112.86482644839475       96.32754360935283      108.40249134565420
N          112.25242969290608       98.39128003779403      109.91023003375523
H          111.51539896950852       99.04629021822585      108.06102717201857
H          110.72235446515154       97.62389367577977      108.74959140895697
O          119.64992488816218       95.31682060498073      106.08888245001782
C          111.55670481245433       98.91547850080890      110.91706086405016
H          113.23818931266560       98.20039242143237      110.04257830886860
C          112.33622781109564       99.08700657400901      112.19761751781249
C          113.37061538916487      100.20683119882094      112.07363553822435
H          111.63711215321895       99.31118784815720      113.00479180377062
H          112.84700263124188       98.15288621603385      112.43090458932276
C          112.70352686825160      101.57788227624825      112.00749751732559
H          114.02165762583958      100.15754919106269      112.94493007931264
H          113.98379772997225      100.03593899359282      111.18827901980755
C          113.70231085823805      102.71406358937863      111.73311849160902
H          111.94106108824099      101.57190903122709      111.22800198457689
H          112.19866470362807      101.76089542824103      112.95911991920890
C          113.30507186012490      103.95289665540356      112.51322925747120
H          114.69470654905714      102.41503055637371      112.06547561082706
H          113.73660690305941      102.93369950498969      110.66871900804648
N          112.52582580720845      104.79821651599082      111.84526067261758
O          110.36781283948537       99.23284991473298      110.82826885433434
C          112.06216128281203      106.08412606509062      112.32120653179896
H          112.25853089358311      104.58137596480742      110.88683012011599
C          112.24466959848839      107.11407301655292      111.21036054369466
H          111.00590502371990      106.01632254612787      112.60566601742178
H          112.64259357696962      106.35545535437151      113.20543160741929
C          111.76275844874840      108.50591874369971      111.60113389083124
H          113.30401955905468      107.15996577574631      110.96307383429948
H          111.70622354397341      106.77397624411921      110.32334048864799
C          112.04196167070592      109.54404472994737      110.51185145854204
H          110.68776313767020      108.47149087827540      111.79472159040319
H          112.27136760440399      108.81029454502513      112.51632430217546
C          113.52670090246757      109.86776303073293      110.38723360744018
H          111.67490297158051      109.18132461231343      109.55102383380259
H          111.49792504508277      110.46072780618843      110.74690378048638
C          113.80754297789656      110.91581095439783      109.31869642696408
H          113.90640735469464      110.21287741336812      111.35086425320571
H          114.07281372515146      108.96433510008687      110.11859357302966
N          115.22654343758860      111.20595401429587      109.29561648765085
H          113.50235580625517      110.54721753834906      108.33361448711534
H          113.24052042403791      111.83264780939447      109.52616340290433
C          115.87299544639905      111.78905147109774      108.28878489994408
H          115.73689519522220      110.98517671446432      110.14825847203271
O          113.66814543825033      104.12156386460575      113.68061141121392
C          117.36413407434435      111.95606152437007      108.51711672605292
C          118.17647232722123      111.00295526756400      107.63764146965759
H          117.63474205522782      112.98195433186915      108.25676885913001
H          117.58718150389811      111.78104922283975      109.56718904269320
C          117.94191938528191      109.52938151549805      107.96778844511722
H          117.92683383920964      111.18705832142766      106.59051523214242
H          119.23746196027420      111.22914705197419      107.76299184366285
C          118.76954280011331      108.65711737871887      107.02045312939579
H          118.23592046655344      109.32776610583862      108.99853304986090
H          116.88025341828747      109.29325020384903      107.86222835826072
C          118.55621510114865      107.16682509242882      107.20540618046275
H          118.50636568136009      108.91207866707961      105.99150194609109
H          119.82681796530541      108.87795752723967      107.17916218298150
N          119.16621260641803      106.63817629657852      108.26569067276080
C          119.18637959919820      105.21730300183403      108.55500059153860
H          119.62123889372552      107.24981140040144      108.93553347698189
O          115.31953285526025      112.18134757643713      107.25753322077422
C          119.26409604208486      104.96650841261929      110.05731453512325
H          118.27689990456629      104.78391527624358      108.13448146854731
H          120.04965364754801      104.76457775515621      108.04810717273847
C          119.48726763447092      103.49980569817507      110.43076145063749
H          120.08126471992942      105.56543796017085      110.46028972188456
H          118.34076296390221      105.31817277221349      110.51843778799365
C          118.29258928427367      102.61282717213518      110.08540516538844
H          120.37957868859318      103.12549757099251      109.92463882606596
H          119.66735362626353      103.44807011188595      111.50598628415266
C          118.48747136119141      101.15585358163743      110.50598262642148
H          117.40400943153217      103.01092248909957      110.57946829350432
H          118.12389514612585      102.64047588192665      109.00866822014305
C          117.36593666825262      100.28015459115640      109.95619299527436
H          119.44013379208148      100.78198272792109      110.12523050785826
H          118.51228378764939      101.07500533720061      111.59301109301362
N          117.55814332985112       98.88664927504271      110.29718494964594
H          116.39377606892431      100.59016874362658      110.35044509213742
H          117.33102098288619      100.37613624423582      108.86135418314156
C          116.55940787166895       97.99894129585986      110.36226659015699
H          118.51547474066383       98.56387624379823      110.39044949298415
O          117.89733918236502      106.49462648610576      106.40833369005206
C          117.03618554124127       96.56540117865387      110.51816915409185
C          115.95234568917249       95.60678829289888      111.00303242782742
H          117.38352684621735       96.24544930288897      109.53088153831327
H          117.89707375324420       96.54486936454194      111.18768122720276
C          115.56734067398114       95.85729595982379      112.45875527902047
H          115.06949626682901       95.70802084995756      110.36850502794839
H          116.31284331860637       94.58114524725315      110.89855607846020
C          114.72153451366187       94.72059064278389      113.04314374899670
H          116.47759527381548       95.94672273605585      113.05665072045036
H          115.01623650223112       96.79567058550268      112.53483000974387
C          113.46926326524037       94.47775964592390      112.22313596847383
H          115.30307314851174       93.79756675270143      113.05003335043614
H          114.43427364585578       94.97870507294938      114.06245640109178
N          112.48399947979397       95.35729927430789      112.44637898164619
O          115.37702785390508       98.31558024769772      110.26502619941155
C          111.20951576700477       95.28708407892812      111.76112419108115
H          112.61227638772921       96.05679444567944      113.16764249158966
C          110.03861957818935       95.58298803644881      112.69737044291796
H          111.21319138485035       95.99250854510517      110.92271142339722
H          111.13396049247635       94.27385609259993      111.35500236319528
C          108.70834671817246       95.01734077082885      112.18724956179453
H          110.24843563123470       95.12848867728283      113.66770535866537
H          109.96270426169991       96.66035514543245      112.84888429108311
C          108.31789833155479       95.44572468450723      110.77048940911774
H          108.77073521274350       93.92736018466354      112.20560761105953
H          107.92026321840204       95.31540305047503      112.88129429745720
C          108.10982341466848       96.95248911220321      110.63966485661506
H          109.09358500633847       95.12342929290666      110.07406146138865
H          107.39627463540580       94.92830429416097      110.49654660262438
C          107.84429125286682       97.37933129836357      109.19343436238226
H          107.28357888460572       97.26360492629078      111.27958811534606
H          109.00952328263736       97.46083661446819      110.98303545867782
N          108.19812051625816       98.77543017362345      109.02746525600105
H          108.44502686895551       96.75452334564093      108.51801794355310
H          106.79274136550930       97.23465370313362      108.93204819057360
C          108.03431776449453       99.54212684228030      107.94326682890346
H          108.88265968436586       99.12211121302872      109.70226436582440
O          113.37390340176154       93.55721583338882      111.41409288199337
C          107.29542659206307       98.95106165156480      106.76071032692433
C          107.61587690711058       99.72775378963286      105.48471671337740
H          107.57804504966695       97.90478292822779      106.63870272852371
H          106.22192299729331       98.98781021702348      106.96240876057166
C          106.84365983298743       99.20819020434519      104.27881719193498
H          107.39414349723343      100.78616182491707      105.63274995687914
H          108.68730225841270       99.64811478283553      105.28374522377862
C          107.22313467473643       99.96614608846689      103.00914443516727
H          107.05401685407220       98.14545428451299      104.14418324244464
H          105.77026990792785       99.32734414700337      104.44288634666073
C          106.50201832513153      101.29752186007026      102.86449523638896
H          108.29972562340943      100.12980604013218      102.95510672969422
H          106.92895560970781       99.38043845037731      102.13372119727045
N          107.16015899960652      102.18137921958208      102.10279381834398
C          106.55118795869600      103.39843683868335      101.60088235450918
H          108.10899000536175      101.97788092270066      101.81095750336171
O          108.46559983444156      100.69360317469049      107.92848237725043
C          107.58641773119761      104.28088753026861      100.91504120333909
H          105.76210629045077      103.12612053009943      100.88734285236684
H          106.06733560625561      103.92336114035017      102.43077672601035
C          106.94559007051605      105.33541294944513      100.01653525901099
H          108.20973684044819      104.76853073937069      101.66569415451616
H          108.23722981195742      103.64542859419677      100.31014500890734
C          108.00146323032354      106.17745189241342       99.30453528903720
H          106.31769256747000      104.83865458086197       99.27353586312616
H          106.29935406321873      105.98310667693043      100.61125875732797
C          107.37099853782775      107.23025563577744       98.39621360313241
H          108.63732924380899      106.67813443670013      100.03632936625957
H          108.64182378237577      105.51907486114413       98.71362484519958
C          108.42401673918135      108.08645147466289       97.70144390941185
H          106.74289863559916      106.74441532994243       97.64569089880975
H          106.73131613391904      107.88197483770222       98.99227734872582
N          109.23091324367790      107.28838123133380       96.80143746743525
H          107.94067315220092      108.89534832087421       97.14026295521074
H          109.10154365774615      108.52777928652593       98.43644850491935
C          110.53841335044055      107.49855826115392       96.59358477950046
H          108.76382212384789      106.53440339299392       96.32236862909309
O          105.39288702035736      101.52244038595295      103.34025074664012
C          111.21092121903921      106.47892359017189       95.68854390685617
C          111.68839712285941      105.26432038520868       96.49932104726506
H          110.53021108519485      106.15948548979758       94.89990246746791
H          112.07451006955012      106.96536277044146       95.23268075203544
C          112.47675179255324      105.70273481102387       97.73730796870576
H          110.83307141550384      104.65714852755112       96.79931502123161
H          112.32214659191192      104.65296463378013       95.85486018942395
C          113.53744588129688      104.68374407881532       98.16191728995045
H          112.95817761537386      106.65554014442469       97.52062426173387
H          111.79031230153829      105.87218807472040       98.57024193039375
C          114.26649413535984      105.17657391945460       99.39419936733556
H          113.05615598914414      103.73549238145291       98.40400235795079
H          114.24303808920500      104.52042786343935       97.34746042692339
N          115.18041849545153      106.13866011647596       99.23867516428618
O          111.15677070421893      108.42263579070486       97.10538648000957
C          115.61952519405529      106.78914480921021       98.02218343257150
H          115.57911427607004      106.50263487681838      100.09454228000826
C          116.94288720347052      107.51557517606545       98.23471054282018
H          115.73595267231745      106.03780886180273       97.23699154096120
H          114.87128608906869      107.52023476382764       97.69492550006409
C          118.10182260985157      106.58822352202240       98.59880341500053
H          117.18356731027582      108.03967062404725       97.30868644139866
H          116.82476137583261      108.26835985711209       99.01685789379810
C          119.41037253289321      107.37570789496057       98.63473938296737
H          117.91995389753644      106.13885255129090       99.57654693598025
H          118.17594610841890      105.77791701363822       97.87108848742699
C          120.55843324154297      106.62154121288663       99.29604136769711
H          119.69570110061957      107.65047859369490       97.61696389000406
H          119.24061191836243      108.30117514290095       99.18764777525590
C          121.83426180198947      107.46020760708571       99.30507968476714
H          120.30441507261128      106.39299148933242      100.33225451367903
H          120.74010835223176      105.67813602391341       98.77645719516941
N          122.85426051864515      106.85109752689088      100.14599661313260
H          122.17159664830859      107.62350751708479       98.26668125163278
H          121.61890848101768      108.44094762675795       99.73544644374766
H          123.60658366373438      107.52499633079142      100.24884739395026
H          123.23276164616195      106.02422220401318       99.69530505416606
O          114.03146202452918      104.71403645752015      100.51179122343157
C          115.47895016241962      100.67931835567003      101.54300385451228
C          116.08482601270404      100.23313803222158      102.84999811438317
C          113.95291588230836      100.69515494412867      101.55445529070339
C          113.42455046059432      101.37622261785229      100.29508454348947
H          113.57385261140962       99.67445926760564      101.62501625311901
H          113.60450256439269      101.23219900113187      102.43817298583980
C          111.89949006226414      101.38640618275734      100.21228977836596
H          113.81549415204735      102.39322083946895      100.25928018686560
H          113.80420671989700      100.84324716818305       99.42055865100019
C          111.15317366074761      102.19057903466974      101.26531617194955
H          111.59363274597963      101.79505298721647       99.24441839280421
H          111.51694630139338      100.36495368340503      100.26718912423765
N          111.66892985055688      103.37352642493224      101.59982906551555
O          117.38403281369074      100.47835320354410      102.89662231938485
O          115.47073037286802       99.73126706105566      103.76462726045375
H          117.79791555011310      100.25383151577076      103.78020481931068
H          115.85123652923311      100.01335248069485      100.76169690754278
H          115.86560156434992      101.67763221027049      101.32953130118753
C          111.03180429687161      104.28197490744935      102.52581919185423
H          112.54248703240958      103.70376391195222      101.19789770191453
C          111.90892976358140      104.60365666579760      103.73642212535412
H          110.80568458368840      105.21746474917599      101.99971321637439
H          110.09499525093159      103.82070042685969      102.84353128427524
C          112.29623107416263      103.38440891119461      104.57324233294028
H          112.81299597294532      105.10603203747154      103.38667829626357
H          111.36044077479617      105.31007255644037      104.36297873510215
C          111.09427384453583      102.60497155044612      105.10748302461873
H          112.91708298964966      102.71531473470101      103.97366471670547
H          112.90231276862546      103.73747426839593      105.40900440221797
C          111.49445569354539      101.50874700542968      106.09841889777651
H          110.39598862310484      103.29085801695840      105.59280049262748
H          110.57243167828017      102.13848238271832      104.27108763727148
C          111.81095209894406      102.04518101489407      107.49216774510369
H          110.67063789476981      100.79856890644669      106.19287202819193
H          112.36208602335196      100.96960444800690      105.71346386418031
N          110.61226758518042      102.54607404024486      108.12641632158554
H          112.24848504139327      101.24921733335015      108.10772399936326
H          112.52496273213171      102.86937457468262      107.44125662466904