3795
 energy: -5103.051797429320 gnorm: 0.000976263717 xtb: 6.6.1 (8d0f1dd)
C          127.59729759583286       99.52770293286319      110.54175876757586
C          126.33620459764026      100.04099262663546      111.19310213968160
C          128.35907376586468      100.67296969059100      109.86539687132002
C          127.53651688805104      101.29562425002133      108.74011287877046
H          128.59923249254908      101.43274434329734      110.61057247207020
H          129.29786887505048      100.28827339940996      109.46414894286816
C          128.20888318897539      102.53166928645801      108.14527705287281
H          127.37781868085332      100.56205296619012      107.94777694982716
H          126.55056169277461      101.57520059983115      109.11869233135444
C          127.46097998729714      103.02504533344869      106.92751668092984
H          128.26289998980181      103.32886314599099      108.88948940037781
H          129.23317909322120      102.29765059479094      107.84588981649908
N          127.90084673474789      104.15272650234257      106.34479430213850
O          126.56370596183224      101.03080074305576      112.03993459310226
O          125.22981845704369       99.60301514676729      110.97340546700667
H          125.72621920569172      101.50598299881439      112.27918185441199
H          127.32484619899590       98.75930654506467      109.81819379832454
H          128.22037359169116       99.07406535953837      111.31407271911952
C          129.01515313537087      104.99675829039249      106.71175117401050
H          127.43154235698158      104.40340078042445      105.48351335002809
C          128.79837453474062      106.41599933008742      106.18664380286356
H          129.12271144672286      105.01551205071850      107.79771313206005
H          129.94746806018193      104.59465644771502      106.29501202740624
C          127.50244342039055      107.03928463665915      106.70377602631220
H          129.64747255040220      107.02624219677023      106.49794874143747
H          128.78256682288068      106.40066079097861      105.09403798367917
C          127.30086067894193      108.46909854734039      106.20161108340234
H          126.65250424012014      106.42983075868375      106.38890498539536
H          127.51053392510551      107.03648943329524      107.79412472523629
C          125.89310492093104      108.97024721904252      106.51812559019680
H          128.04050551513265      109.12558932816070      106.66565296605955
H          127.46899786427916      108.50368924437207      105.12294200936395
C          125.68309811778126      110.42843930785249      106.13024137314932
H          125.16040162213899      108.35049589126972      105.99951523167250
H          125.70634204230772      108.86833067791574      107.58770928691767
N          124.36138902626247      110.87751913233265      106.51467364516856
H          126.42977245651586      111.05198904727587      106.63682436106173
H          125.80434522549140      110.58101314480830      105.05335437235601
C          123.76908554737857      111.94181422438159      105.95739368953191
H          123.84462376614619      110.28080807563124      107.15508250455174
O          126.48812834762940      102.43905401565777      106.46794213001198
C          122.44107148670642      112.33136250039489      106.58500947273112
C          122.52464459321432      113.78136924641444      107.07739426193412
H          121.65699877017276      112.25194728885782      105.82888003762180
H          122.19940042540402      111.65497634810851      107.40412570333380
C          121.18348979199476      114.27907531978639      107.60506061746905
H          123.27389526892448      113.85013772019862      107.86946730449159
H          122.85774731354773      114.40780089079047      106.24782320406928
C          121.20641573038685      115.76235663030346      108.00286751165540
H          120.41107192527770      114.13229789410386      106.84735058913125
H          120.90396220582861      113.68496643031769      108.47853457020101
C          119.82872454537502      116.10212024781018      108.53052496391527
H          121.95447971279320      115.94595945114234      108.77073733292993
H          121.43367745293004      116.38158940067122      107.13390167488080
N          119.75757606207476      116.33267260275015      109.84395446286987
C          118.48680647209405      116.34553383857758      110.52642801892380
H          120.57555075715274      116.60278213325662      110.37983314616034
O          124.27541315195322      112.59165958742304      105.05161930338916
C          118.59654967377828      115.87322927464305      111.97706758046967
H          118.05859731462098      117.35658401779655      110.52059270406897
H          117.81941808490232      115.69328574049609      109.95562695400066
C          119.55332342159998      114.70155879177780      112.19402603096822
H          118.95687116252986      116.70367620987227      112.58766921895631
H          117.59532579078946      115.60636347916405      112.32414282340531
C          119.27288410440519      113.45106297415211      111.36335053635622
H          120.56522023569032      115.04583196712105      111.98038287695550
H          119.50859297581313      114.43498039829191      113.25401128715193
C          120.25953570140005      112.35340865149078      111.75837797565050
H          118.25356850614737      113.10059926015140      111.53041013062035
H          119.38308308414425      113.67870556293065      110.30322321702414
C          120.13854725284276      111.08374361568306      110.92667667963669
N          120.91866383933092      110.03373828339789      111.54994275196850
H          119.09670417398810      110.75967772707970      110.87425732598737
H          120.48406559945251      111.25274174635615      109.89974811970723
C          120.77999516114986      108.73852583167545      111.27253556254517
H          121.57276883516501      110.31818700412602      112.27164981656003
O          118.82984126387838      116.05121481808915      107.81217694474404
C          121.55376259974112      107.82443833215413      112.20559447736250
C          120.74086999900381      107.63482461096643      113.48972669665517
H          121.70474964086837      106.85253426652798      111.73439198970338
H          122.52162735550448      108.27077824786630      112.43590400154038
C          121.42646309827914      106.70217743966782      114.48218576458117
H          120.57030761539352      108.60691513027020      113.95593148057301
H          119.77292801555390      107.20416330184756      113.23412720517939
C          120.66468030629109      106.67336787468996      115.81191332550745
H          121.45685007346297      105.69476517517398      114.06201707222100
H          122.45331532768810      107.02529491411921      114.65939060321941
C          121.20133403177842      105.55312267749248      116.67301248154445
H          120.78014215189344      107.62447714785030      116.33113311779960
H          119.60860738321718      106.50139836052921      115.60966718261186
N          120.71106219969820      104.35081574896746      116.36124976646083
C          121.21974142024361      103.12890595170258      116.94987401165504
H          119.99833750116912      104.28970549312442      115.64247836894067
H          121.27834057616033      112.73734793163563      111.66949022629809
H          120.08919107810698      112.08611972416411      112.80382808545859
O          120.04643282543411      108.31557400637000      110.38454527297398
O          122.03780295531382      105.72561767787229      117.55584324361728
C          120.49007648680882      101.90280943802195      116.41630027685780
H          122.29403614854280      103.05441695397130      116.74678506077575
H          121.10432626704673      103.18006763506156      118.03861977427852
C          120.58928252094383      101.71798787407226      114.90004598848299
H          120.90061819564610      101.02346165550375      116.91619977724119
H          119.43581846034817      101.97944716302797      116.69170275311761
C          122.02351668686664      101.57330758875806      114.39857237514430
H          120.02600019657226      100.82118558708908      114.63697225480966
H          120.12497881459652      102.56646028998108      114.39672396049085
C          122.10424968903551      101.07785282343686      112.95402404907830
H          122.52328583909225      102.54124433698736      114.45913186764035
H          122.55816794790049      100.87443798162364      115.04353160565630
C          121.90153410047026       99.56567044035759      112.84166216908059
H          121.36158143993548      101.59306048197753      112.34284719012848
H          123.08605908582615      101.32529053355030      112.54982218950316
N          122.30573237555137       99.06891740975378      111.54587430266989
H          122.49412466647833       99.05909314436923      113.61229256864102
H          120.85213506296266       99.29368160249125      112.97146153543864
C          121.46360923130510       98.48014714574491      110.68596089388477
H          123.27812733891909       99.19498589614358      111.29379017585663
C          122.12260969961194       97.96138839317915      109.42153221894607
C          121.14514626741250       97.88972262030677      108.25072319784637
H          122.98543424944995       98.58302868389308      109.17495370245086
H          122.49017347841657       96.95544425284021      109.64188342683920
C          121.77632291672778       97.23762788282149      107.02382435235960
H          120.26708355305014       97.31740076433043      108.55294426829794
H          120.80929901828200       98.89912544750138      107.99922500329050
C          120.87389789402339       97.36097068941416      105.79745214243195
H          122.74154240236172       97.70463442497348      106.81061376237760
H          121.94554634397456       96.17896726608510      107.22519756343202
C          119.57882897677995       96.58393621270720      105.98912665891295
H          120.64910715607445       98.40604609209844      105.59032003677879
H          121.38377318693273       96.93503366599336      104.93021055155309
N          118.47185985815101       97.26885888865559      105.64530411949208
C          117.14755501132245       96.69698974401145      105.73324708286862
H          118.53678920495797       98.23870480565252      105.37032334851861
O          120.26758594609935       98.35043332629074      110.91463052634192
C          116.17315558361707       97.64284381449819      106.42836751159949
H          116.77735663514314       96.46075341042561      104.72786585331957
H          117.24786084991158       95.76104467742492      106.28969011453883
C          114.85545105882339       96.94377508494733      106.74642501496959
H          116.62278069080412       98.00423190087201      107.35615929315692
H          115.97949357223561       98.50156493621975      105.78332036299997
C          113.87080128051879       97.89343882075799      107.42191780012908
H          114.41937793913212       96.55389767845823      105.82438661568283
H          115.04937635685683       96.09627806576280      107.40753829201137
C          112.61589066789983       97.16066529747491      107.89106602967267
H          114.36698568329923       98.35373203552628      108.27636712987952
H          113.59599774908780       98.68683598265427      106.72358381707684
C          111.68659124393695       98.05829077841642      108.69734924134811
H          112.07112521962870       96.78023193581181      107.02477086523069
H          112.90036766855501       96.30423485891853      108.50644975142676
N          112.26144388209813       98.37030309353494      109.99037469193341
H          111.48008909242431       98.98357333244998      108.14479639003969
H          110.73047891606474       97.55419380329252      108.86680701747655
O          119.55581828241922       95.43824800901992      106.39682382831495
C          111.55730771662469       98.87254595459470      111.00115425941753
H          113.25833238997434       98.22138515388851      110.10640359337012
C          112.33437355412508       99.09159996948871      112.27408840048487
C          113.36590442944411      100.20882023291961      112.11716242704495
H          111.62925330969878       99.34099504774375      113.06884075500021
H          112.84657190728032       98.16897698439954      112.54541549661195
C          112.69394952335766      101.56989299055090      111.95719226962746
H          113.99074364844896      100.21322641272036      113.00874369277500
H          114.00627264871730       99.99587715083858      111.26071072726913
C          113.69200510550161      102.69944985810137      111.64639436044726
H          111.95304941234947      101.51613764063222      111.15897261488840
H          112.16198513421716      101.80165539443723      112.88323214205364
C          113.33643849175539      103.94036376591511      112.44315943185779
H          114.69586828792343      102.39241944745710      111.93550877396761
H          113.68734235576562      102.92227250186629      110.58173152560438
N          112.53819445108648      104.79122723156836      111.80851940791364
O          110.35394053026623       99.13862005402160      110.92588863430623
C          112.09851886839930      106.07835452962925      112.30642463748258
H          112.24884474913215      104.58580660515096      110.85183307955116
C          112.21652465927876      107.10231407182235      111.18179084180088
H          111.06015530962760      106.00719908048195      112.65012157730084
H          112.72593369934290      106.35436963011807      113.15685288766089
C          111.77060427754672      108.49994012060252      111.59576076730023
H          113.25865890773028      107.13768000206403      110.86864950779012
H          111.62326910537752      106.76146693394956      110.33139913460394
C          112.04016631389136      109.53805983687549      110.50340939058738
H          110.70129321521759      108.48212752582580      111.81868734802370
H          112.31105119044763      108.78704059676336      112.49822974137003
C          113.52600161639953      109.85112090543069      110.36049180328483
H          111.66002122998675      109.17870090661475      109.54801664871023
H          111.50575913711337      110.45793996984986      110.74647597699673
C          113.80286169865742      110.89019179973270      109.28164724380467
H          113.91878313345130      110.19789474575401      111.31842236238147
H          114.06115491780959      108.94164413814724      110.09091613312529
N          115.22483753236034      111.17194954982078      109.24675041593632
H          113.49019697724793      110.51441897108880      108.30243981193206
H          113.24309975758088      111.81125962869561      109.48863273894629
C          115.85403269920982      111.78335347604774      108.24559725675944
H          115.74285348684883      110.95820840833369      110.09645107545040
O          113.74432920230301      104.10224689495256      113.59719610904928
C          117.34922697584594      111.94424837508036      108.44854597905301
C          118.14444407298586      110.98567610414023      107.55776749164033
H          117.62036435150455      112.96776385785549      108.18028010498820
H          117.59038282668666      111.77346869863686      109.49555281867251
C          117.91589452617373      109.51358538604021      107.90048488670102
H          117.87595650489264      111.16529903277814      106.51544834318058
H          119.20765697677513      111.21297382641200      107.66338424370196
C          118.72124821038229      108.63878576217131      106.93506143830027
H          118.23559601905806      109.31544484410476      108.92416259405705
H          116.85317539075841      109.27754526856225      107.82040860006107
C          118.54354526899833      107.14847078290175      107.14735055141736
H          118.41798818713508      108.87395801852600      105.91283118644755
H          119.77995875774135      108.87866893778883      107.05425315364941
N          119.18317983581549      106.65232033337085      108.20956547800607
C          119.22394106396911      105.23842671135931      108.52081655696121
H          119.63563896164550      107.28177255068381      108.86445192351120
O          115.28441623660333      112.19847553662923      107.23533854062995
C          119.27704174622374      105.00884413799102      110.02763435720479
H          118.32726348064227      104.78511238570319      108.09302542494311
H          120.10190699005818      104.78851482041576      108.03686477956003
C          119.49012273587013      103.54696330477219      110.42478769182996
H          120.08643902881997      105.61326161426112      110.43807598915281
H          118.34521958889172      105.36605731107009      110.46709855907100
C          118.30411024528054      102.65898676976357      110.05386626307931
H          120.39591059838280      103.16567861988125      109.94722435994191
H          119.64190296628892      103.50576089734675      111.50539230999398
C          118.47799085661140      101.20191896349773      110.47936637683243
H          117.40307044604299      103.06289693025734      110.52163057598924
H          118.16395821042560      102.68535225129615      108.97242189615635
C          117.37485037755651      100.33092088587102      109.88474964841949
H          119.44346914881844      100.82565575735646      110.13590721601919
H          118.46286049420888      101.11861542541695      111.56668159541312
N          117.53966608132306       98.93986520782894      110.23428144751924
H          116.38877714486897      100.65222481643053      110.23509741283455
H          117.39028635199496      100.42900810279862      108.78877379410147
C          116.51626238363561       98.07859512758380      110.32961619444733
H          118.49242048196599       98.60785399784724      110.34773001569062
O          117.89197093210950      106.44625684325067      106.37546824421806
C          116.96048318903605       96.63768164625169      110.48166433929835
C          115.86711698778382       95.70348333829671      110.99146019834936
H          117.28118498800572       96.30833006407403      109.48870220308582
H          117.83411745151490       96.60193324134521      111.13469383116524
C          115.53188075230372       95.95118419199493      112.46038966495314
H          114.96979451849022       95.83260867571946      110.38481136368016
H          116.20019507320336       94.67153338981400      110.87088536966235
C          114.70867912934476       94.80817634179863      113.06434249794495
H          116.46185804358387       96.04331226686598      113.02889088610634
H          114.98228273172103       96.88865264048329      112.55927194445464
C          113.44810777246498       94.55441330948193      112.25862596847713
H          115.30027962846978       93.89179278968120      113.05914166310255
H          114.43828584945163       95.06182463908296      114.08959205931768
N          112.44420701955140       95.41266876443024      112.52837539185833
O          115.34427478484503       98.43155646615564      110.25049075683442
C          111.17323667086215       95.31566377425742      111.84710424297921
H          112.56388988194496       96.09936250782732      113.26130622484152
C          109.99165540942289       95.52310280513801      112.79340145418502
H          111.13600091678755       96.04986190646696      111.03365964118585
H          111.14263424771487       94.31437559228486      111.40644554573323
C          108.68490489181633       94.92842387161436      112.25666300532943
H          110.21834084209237       95.03610573822478      113.74411770706784
H          109.87044799908679       96.58919190944903      112.99351703273865
C          108.30813026762000       95.36340740863285      110.83817636714970
H          108.77478258159962       93.84028273187083      112.25990221202268
H          107.87516524207363       95.19476073229879      112.94018541292517
C          108.10237156690550       96.87012746946303      110.71009397955422
H          109.09324395148579       95.04701893633595      110.14972978826142
H          107.39063631659380       94.84553143166040      110.54800154699039
C          107.88178099735782       97.30901072439121      109.25965187432264
H          107.25718495273765       97.18103845306443      111.32657891605827
H          108.99046042492554       97.37752440510221      111.08399226256060
N          108.25878942832921       98.69913547813239      109.11550256656693
H          108.49073122206399       96.67772544814645      108.59590569262424
H          106.83489805330370       97.17799066979609      108.96903456116547
C          108.10139457846468       99.49547905751315      108.04927496798700
H          108.96630144322830       99.01699930021370      109.78583309747091
O          113.35397956830374       93.67007801110810      111.42688492001294
C          107.34297227905576       98.95471561470411      106.85682116636545
C          107.70999849428377       99.73010945958785      105.59252734164225
H          107.56226312748751       97.89390165434065      106.72673445707723
H          106.27253082653327       99.05325937216683      107.05753458469320
C          106.82909941982341       99.35609264868354      104.40769379588313
H          107.62679131527257      100.79982316889014      105.78862895627238
H          108.75406423000663       99.52296808791138      105.34387742632290
C          107.21102586818803      100.14999914795635      103.16200523091386
H          106.92483269339145       98.28611489733916      104.20907732543181
H          105.78238916951139       99.56672982861593      104.63954233317936
C          106.53037498589573      101.51082311350137      103.08186138143036
H          108.29135937000440      100.27937062290901      103.09166449211968
H          106.88295965112604       99.61005689156929      102.26912978381409
N          107.15674436334346      102.35110008361760      102.24360253007978
C          106.55004439023513      103.56066758596819      101.72841302363987
H          108.06391163593814      102.09197704281043      101.87386930174205
O          108.55034722023599      100.63649497548184      108.06764767910941
C          107.59763176570863      104.45187317999356      101.07155822696078
H          105.78579478253884      103.28670784499803      100.98720624395426
H          106.03951514504760      104.07592840949046      102.54659281477483
C          106.98202369841074      105.47764610960434      100.12401193871418
H          108.18116077412535      104.96499642855237      101.83687729805604
H          108.28469288320692      103.81705605525768      100.50653408808842
C          108.05922257067461      106.27726539816972       99.39619307840468
H          106.35817941872716      104.96064575904867       99.39021678197260
H          106.33543403537368      106.15699124128575      100.68145623358834
C          107.45911248754092      107.32761224393761       98.46530848316284
H          108.70495056811237      106.77964353043848      100.11704670506869
H          108.68391580389471      105.59091087389029       98.81910571770202
C          108.54058730484532      108.13785941693327       97.75945308261299
H          106.81910394498071      106.84512090640301       97.72049789916267
H          106.83505910308658      108.00681281657397       99.04632561222191
N          109.31034843899674      107.29796671705171       96.86585094199850
H          108.08709497464847      108.95988752865574       97.19117436714305
H          109.23846892898712      108.55574198571836       98.48877952707144
C          110.63202121657869      107.44027196731766       96.67144102313048
H          108.80713029620730      106.57566860022432       96.37569912977098
O          105.49265356891334      101.78806921054773      103.66279441858693
C          111.26001674202192      106.38374671210481       95.77358965194539
C          111.70783724403162      105.17149598053858       96.60453008501307
H          110.56296921045997      106.07067275355413       94.99521461355280
H          112.13419400411144      106.83375079008401       95.30057940906465
C          112.50369985488553      105.61138601188112       97.83852723457669
H          110.83623746865872      104.58882002469947       96.90934542661945
H          112.32586814826814      104.53108211403904       95.97104045087490
C          113.60084216390102      104.61911306985925       98.23048903898753
H          112.95535131269604      106.57924131206705       97.62890721139203
H          111.82683197469730      105.74574069734275       98.68440755196438
C          114.31510373242837      105.10475208956724       99.47572902775839
H          113.15738173759463      103.64638809740086       98.44764272231942
H          114.30931833985676      104.49957021532687       97.40926931538870
N          115.16062398542356      106.13445860383995       99.35299272926271
O          111.29154620869164      108.31909025547165       97.19310920649234
C          115.55960798993750      106.84710554174522       98.15932227056595
H          115.53244279039093      106.49488326527857      100.22288417861868
C          116.88692363746293      107.56928257016645       98.36349650730892
H          115.65448301839578      106.13576217269497       97.33420664359195
H          114.79984465645880      107.58979341321565       97.88958562160536
C          118.05716007575795      106.63435734351957       98.66718477119235
H          117.10330509222388      108.12568305557107       97.44999396527444
H          116.79012393666204      108.29460706665847       99.17329459088565
C          119.36216487246162      107.42851320661991       98.70439510515533
H          117.89814590008926      106.14857326588206       99.63146014742912
H          118.11892190878564      105.84918570775092       97.91005308957467
C          120.51805862769737      106.68021476124612       99.35934291512088
H          119.64282299172928      107.71333619777759       97.68792150470939
H          119.18524115067757      108.34821343687248       99.26387370260333
C          121.78280882579229      107.53589995181369       99.38663220544353
H          120.26193603803377      106.43476310031380      100.39125627577448
H          120.71393302376022      105.74533416228628       98.82902495480052
N          122.79916764753204      106.93742206317262      100.24056054639395
H          122.13118812701677      107.70591252896321       98.35437924772168
H          121.54951541504995      108.51019529536795       99.82044547236988
H          123.53233778109204      107.62863288755143      100.36764543851301
H          123.20498623859984      106.12368142139250       99.78826241247096
O          114.12207636207330      104.58456778897153      100.57043256839009
C          115.41426132304946      100.63440401133552      101.60496937123989
C          116.02713381073812      100.25908006077751      102.93236851814017
C          113.88914911467228      100.67317071715829      101.62816056491063
C          113.36498434901212      101.32663875180691      100.35277521563735
H          113.49462690978231       99.66122015177986      101.73001501801173
H          113.55782486462967      101.24192005998619      102.49766301976952
C          111.84064421482364      101.37428962502831      100.27782002547556
H          113.78286801301691      102.33107953791074      100.28279700376888
H          113.72644890977676      100.75833533488841       99.49105376420601
C          111.11306091519218      102.22732313846589      101.30756602519820
H          111.54058677393185      101.75996152741330       99.29760510134295
H          111.43265463896975      100.36477995489126      100.36394038038209
N          111.67388013331762      103.39289440284556      101.63698414064650
O          117.34445336780614      100.40306038179764      102.91544673790477
O          115.40830426658580       99.90180525490382      103.90468445189799
H          117.76436487430577      100.23765185218184      103.80285837592845
H          115.77473393174549       99.92535594757612      100.85651457256881
H          115.80993130198148      101.61658934143291      101.33609085519075
C          111.04890762610029      104.33093576102605      102.54215573336342
H          112.57126038151060      103.68019808522969      101.25711957593153
C          111.92137073650042      104.64952461779401      103.75709602785923
H          110.84851951838949      105.26354098443048      102.00133169035554
H          110.09964191088523      103.89295161258006      102.85555793189799
C          112.30722087090585      103.42581511518510      104.58864721371297
H          112.82712923705394      105.15291681479407      103.41499815654772
H          111.36982185180841      105.35059087915637      104.38668884475346
C          111.10529810946019      102.62861124688531      105.09653254615328
H          112.94532064771674      102.76881404155142      103.99418798468460
H          112.89687481449521      103.77592326373447      105.43803543885896
C          111.50549139511540      101.51759122496136      106.07094317726639
H          110.39889595334888      103.30056718942620      105.58928950547204
H          110.59523514065154      102.17303567216398      104.24777779901535
C          111.82094281971493      102.03203242707384      107.47373278343252
H          110.68367495436158      100.80404189077042      106.15556856066772
H          112.37563535168997      100.98581465043902      105.68077535122991
N          110.62880740683640      102.55558065189511      108.10123216993951
H          112.23511993974510      101.21896527321638      108.08413450561095
H          112.55575389713421      102.83891838521861      107.44074895219993