3864
 energy: -5104.093183404021 gnorm: 0.000752993010 xtb: 6.6.1 (8d0f1dd)
C           37.81058150970560       39.51408194342882       49.84493205589428
C           37.40371549193371       38.29961851759710       50.38214341884136
C           36.09819841617774       37.88028096149573       50.15371713786527
C           35.22874551123275       38.64846383454177       49.39988973005592
C           35.65007251640102       39.84894116426157       48.85442592752963
C           36.94485042962241       40.27887582891635       49.08376651568468
C           38.37683376498826       37.45812958633969       51.16999469969664
C           37.87910070250934       37.22022779021258       52.59697244126922
C           38.64607859698732       36.12447498442588       50.45717876134525
C           39.22701341175244       36.33040394065417       49.05169338948612
C           40.49679037621122       37.14476166117334       49.10310904699598
C           41.59802666939011       36.71637467321221       49.83505947650653
C           42.76250348890856       37.46148208915513       49.85946608819799
C           42.84387838402917       38.65288466617040       49.16021637774026
C           41.76122454552709       39.08317302349006       48.41493506584244
C           40.60112540160902       38.33074878370383       48.38655998466224
C           39.49586205855421       34.98480290726794       48.36110290449822
C           40.02039016042535       35.19262520144930       46.93018808248426
C           38.90337400394130       35.42701190520223       45.94650047540740
C           37.99578323721457       34.42399491600791       45.62877939934624
C           36.99898685797356       34.64026468448541       44.69406968227337
C           36.89237976550736       35.86712823820901       44.06207628610392
C           37.78232967225455       36.87826547986755       44.37901099947047
C           38.77660379636436       36.65838325624824       45.31535284154087
C           40.91813685765521       34.02810845566071       46.49087395940226
C           41.49481551758705       34.22499104373906       45.07895845939779
C           41.99208468611973       35.63234087465316       44.86813029411287
C           42.90264134280665       36.21320840063753       45.74302334392308
C           43.36797961916132       37.49907201387065       45.53288791095220
C           42.92520502131713       38.23093800465173       44.44457842818349
C           42.00327710747706       37.66941812551563       43.57774060795813
C           41.54198233958803       36.38240077509483       43.78899264512410
C           42.63195301309767       33.21765808038616       44.84091556776647
C           43.22679818754154       33.32837756256296       43.43147621219020
C           42.18614442961134       33.05130197889003       42.37340436107296
C           41.92147822688089       33.99426471549362       41.38816436685847
C           40.96936467758547       33.75988811028887       40.41200987723403
C           40.26640708923514       32.56826632295192       40.40231085864143
C           40.52719349172736       31.61544201257352       41.37215824905787
C           41.47867579623820       31.85530096901815       42.34679291848575
C           44.42397792968459       32.38537978274599       43.21852431048592
C           45.59453161530062       32.56605025825271       44.20109442912399
C           46.70782843400818       31.61792970836596       43.82529986213091
C           47.02280043029626       30.54808157506733       44.65310544369527
C           48.05083698445781       29.67909964104883       44.33282911729003
C           48.78568684398018       29.87050081277512       43.17610073703064
C           48.47793485882707       30.92882515518761       42.33873808124085
C           47.44432993610045       31.79012756121585       42.65882550794132
C           46.10122503318799       34.01178707278714       44.24360804503564
C           47.29133110950187       34.18682962632928       45.19812294668839
C           46.89687755226149       33.82959165496519       46.60934682901588
C           45.87798743225146       34.51254697566952       47.26266258347135
C           45.48793910540041       34.15900569197641       48.54139236661588
C           46.12814098495152       33.12091149813243       49.19492566371775
C           47.16896940076487       32.45504496426103       48.57152893580923
C           47.54648406025605       32.80586256342632       47.28707717624544
C           47.82752773669032       35.62595477812101       45.12894096586485
C           48.71573208546175       35.85109589118342       43.89632096506502
C           50.02168333770231       35.12189803071490       44.09689209247232
C           50.92013233465136       35.51493230289174       45.08326730621528
C           52.08899301458125       34.80683397513441       45.29667890733114
C           52.38144722807027       33.69518073624813       44.52386662674629
C           51.49980274754643       33.30057415717030       43.53347803993770
C           50.32913841512767       34.00851716047165       43.32628633638409
C           48.95064770837600       37.34243001521261       43.61217634643602
C           47.69896024851443       38.06447113349159       43.08906881404859
C           47.20918904073728       37.43800552287154       41.80776214096597
C           47.94648258448807       37.54016501355909       40.63428661443779
C           47.49353704629816       36.96132427492061       39.46291107334486
C           46.29745072645373       36.26392287517224       39.44781140622214
C           45.55096001458168       36.16165459491281       40.60850780370587
C           46.00141512254373       36.75124068148943       41.77681717960853
C           47.95891861746278       39.56864547777032       42.88862812717056
C           47.63935540924398       40.40096155785979       44.13970089713141
C           48.67559994173093       40.21620400066719       45.22048502564000
C           49.97498138842607       40.68287342072522       45.05251451184314
C           50.91786837160467       40.54075762237528       46.05280189926839
C           50.57686740035280       39.92269562350501       47.24375539932655
C           49.29027514592311       39.44660032689256       47.42420956359152
C           48.34951902377966       39.59634114824770       46.42042537434153
C           47.50624542669583       41.88613613171437       43.77419065778198
C           47.17064856736815       42.76190878300392       44.99334949200057
C           47.56363843552960       44.18826999550502       44.69575596724646
C           46.75446024990472       45.07250050268166       43.99560007756119
C           47.19685136879080       46.35055171913978       43.69357832151194
C           48.45215300227585       46.77016598110446       44.09501663574369
C           49.27095837455214       45.89749344718192       44.79413156549450
C           48.82773678139381       44.62032408947891       45.08277113475216
C           45.70904498519640       42.60258133340541       45.41590806546593
C           45.40172443113946       43.39853311368116       46.68934200841310
C           46.30585583266074       42.92493353069317       47.80458032253242
C           47.35184765616420       43.72340870315777       48.24841579973791
C           48.19906612798911       43.29439497198752       49.25650829622589
C           48.01787530581984       42.05097792907335       49.83200614066600
C           46.98313254636980       41.24305331587943       49.39590718162230
C           46.13873726737928       41.67469619891563       48.38985564801060
C           43.93110042205485       43.27381998543468       47.11011941319241
C           42.90797139894852       43.88385275107537       46.12375536518579
C           42.00924196128621       42.80022027411452       45.57210760364999
C           41.00293669927476       42.23869198806150       46.35212577225933
C           40.18653862460577       41.24051675832990       45.85360730788846
C           40.35901433994681       40.77307129220052       44.56224175959908
C           41.36663067955556       41.30994461280896       43.78141269116597
C           42.17991303775693       42.30993272201631       44.28450208972237
C           42.07082168526822       44.98051747193428       46.79756905641427
C           42.89769462234126       46.23377078365921       47.15786201851709
C           42.58025558987002       46.67402259390124       48.56332442305168
C           41.38969388124669       47.31253260538165       48.88293752720216
C           41.12059119062978       47.70581279066684       50.18209668074918
C           42.03563834532196       47.44950612452563       51.18844748685004
C           43.21571838053259       46.79579231246185       50.88466337113664
C           43.48372714159188       46.41325157169011       49.58428662609523
C           42.68848698083348       47.34154828099828       46.11807531676345
C           43.33140357109031       48.69033711348098       46.49290733485488
C           44.67146783411319       48.52193078769530       47.16030252894762
C           45.75797786219638       47.97775736249849       46.48753943194697
C           46.98511150364111       47.85369393822072       47.11220575834653
C           47.14239210218613       48.26398286799240       48.42467229485670
C           46.06472655178523       48.79171195480157       49.11280178686234
C           44.84221238111873       48.92037466618287       48.48010127391644
C           43.45092140374079       49.54853283772246       45.22799620481752
C           44.04348396477036       50.94605903968601       45.46412064084919
C           43.12990379434144       51.80013320182428       46.30221773777831
C           41.95471546096130       52.31258647142064       45.76986653740732
C           41.11371929420686       53.10348168410965       46.53051151041542
C           41.43254669117644       53.39204873621745       47.84557868167359
C           42.59894002527079       52.88279630653828       48.38823487551702
C           43.44302806758322       52.09932907911490       47.62156799722738
C           44.34099640302870       51.58950729623334       44.09518353970910
C           45.83113632303698       51.49557946815190       43.71344975561541
C           46.00242882209470       51.18448136636589       42.25153453541365
C           45.39668516789092       51.97069372122300       41.27851135010906
C           45.55382657294794       51.67274472640125       39.93754523522754
C           46.30157837597542       50.57500194715383       39.54671115155772
C           46.89812131116669       49.77708438869104       40.50797794233347
C           46.75189396069521       50.08615869683832       41.84889033356588
C           46.51905916492266       52.81143682550105       44.09765184740161
C           48.04152400568860       52.82052398640844       43.91278839892054
C           48.71611492516318       51.70703175287625       44.67338400718217
C           49.59505132591536       50.84838959764736       44.02397039667817
C           50.27277418480691       49.86173157486275       44.71929722717258
C           50.06995690328274       49.70617340162671       46.07972437377786
C           49.18102517353531       50.54144531466747       46.73513806661627
C           48.51595707315438       51.53446182702356       46.03868233950360
C           48.57681819408360       54.18498415776465       44.37643064661548
C           50.09426074877192       54.35038962671251       44.21971301635791
H           39.32739560416848       38.00161692873266       51.22697006878575
H           39.34238107306203       35.53829539636457       51.06139500645536
H           37.71642728029797       35.55738398206118       50.37624552473928
H           38.48901231655254       36.87572268472874       48.45202867137004
H           40.23803300442081       34.43109443021039       48.94027471815210
H           38.57786463514766       34.39433598722445       48.34386873926309
H           40.64605208438921       36.09004443987402       46.94151861022493
H           41.73877577867550       33.94148595806529       47.20748462957859
H           40.36148004277933       33.08953919923967       46.51534859158343
H           40.69985708364487       34.03461714671323       44.34965132128263
H           42.25408032253895       32.20727226158874       45.00640307100436
H           43.57186699147132       34.35729237142795       43.29105272142613
H           44.08221958695818       31.34987658034832       43.28769748973107
H           44.79133634278925       32.53766743377805       42.20039420223421
H           45.25380790245763       32.29431666527457       45.20556908179807
H           46.39187995462499       34.32236841389415       43.23948321514715
H           45.29267455168542       34.66634383644806       44.57181971547145
H           48.09419598585847       33.50941197555350       44.88862379680723
H           46.98545039337771       36.31901147913533       45.11928591801823
H           48.41952967935289       35.83046792465313       46.02392935442229
H           48.22185808963923       35.42280587664906       43.01847361670392
H           46.90187249501838       37.95806892702861       43.83178563082416
H           48.99500683376015       39.73234380350967       42.59140571224603
H           47.33013327851951       39.92286004215482       42.06733033061762
H           46.67354376985573       40.05946672897186       44.52821712599825
H           48.44965870535106       42.22961582380856       43.34612541441489
H           46.73535920752411       42.00724490941654       43.00927518816511
H           47.79741070985024       42.41793174731978       45.82396327034324
H           45.05009895655431       42.91974572251385       44.60809422603467
H           45.50434176959251       41.54778581060172       45.60574919644027
H           45.62276380910519       44.45546523682383       46.49557290439456
H           43.69305098649502       42.21816566005313       47.25311997199481
H           43.83209946446701       43.76657022309055       48.07896255457621
H           43.44435101464921       44.34797267631362       45.29037194262127
H           41.25054356301330       45.25697359381694       46.13014188669791
H           41.62456792374913       44.58072598326827       47.71012685769758
H           43.95805823667745       45.96590168037584       47.14267410717549
H           43.10342695022003       46.99318752744272       45.16975675142178
H           41.62069525293595       47.50601568957010       45.95402899243832
H           42.67208281666793       49.20367566874977       47.20207633187910
H           44.08749487692076       49.03137007864834       44.50742411007518
H           42.46181257701922       49.64874226592364       44.77292356028808
H           44.98278028210032       50.82396818269428       46.01458332223002
H           43.73565039640174       51.09740693757571       43.33172163920834
H           44.04281108580470       52.63972969197985       44.10102133988605
H           46.29613450851877       50.68423058710894       44.28474531014174
H           46.09351942939765       53.61928474172606       43.49679043808111
H           46.27971078346639       53.01798399552343       45.14359402699512
H           38.82177742052951       39.85285196603413       50.01795236085340
H           37.28337725121914       41.21263344193660       48.65937345782014
H           34.97406585757698       40.44156740490747       48.25599107406035
H           34.21846025872149       38.30625577882630       49.22823033567258
H           35.75454951020664       36.94087839072606       50.56208933759763
H           41.55335122808840       35.79439019715740       50.39727440089882
H           43.61253987440580       37.10203372377259       50.42060837092696
H           43.74410476799329       39.24817855655747       49.20208850949410
H           41.81864602186510       40.00139529730779       47.84894044713440
H           39.75792136439630       38.66650845215878       47.79958200635730
H           38.06984477545210       33.45925201333070       46.11035691091136
H           36.30567145150700       33.84630320745993       44.45513242157422
H           36.11907559203340       36.03837814796125       43.32759051825233
H           37.69511248848272       37.84112707916125       43.89708732153992
H           39.47448134920538       37.44924095201823       45.55272041567239
H           43.23519400015346       35.66226883372878       46.60983972699130
H           44.07093501705747       37.93246047424542       46.23093145677000
H           43.28160990121824       39.23680094998819       44.27681256476333
H           41.63982245022022       38.23811067380819       42.73482615875840
H           40.81574674864756       35.95202350489183       43.11407365986773
H           43.41605719585332       33.40317956674073       45.57656005965594
H           42.46307256118249       34.93000103184234       41.39155289042471
H           40.77493692001532       34.50989087091983       39.65854316529327
H           39.52118115594987       32.38167088016502       39.64312250537544
H           39.98597439031857       30.68023307216919       41.36890525761844
H           41.66922239471884       31.09947500204190       43.09467223850352
H           46.45980316054288       30.39923260723012       45.56425682083895
H           48.28114755326730       28.85326080510327       44.99061376948998
H           49.59343782246188       29.19800710175038       42.92716581226074
H           49.04758433016557       31.08903773974282       41.43453627759847
H           47.21696025853633       32.60843157581601       41.99058962415233
H           45.38584292675093       35.33446522588600       46.76614936380948
H           44.68672469107805       34.69844113722635       49.02780984253873
H           45.81816497969909       32.82871063973540       50.18793162103908
H           47.68785122210775       31.66023246618516       49.08757146896318
H           48.35255364091778       32.27621051534747       46.79867197713847
H           50.70541037157127       36.37956162827838       45.69609027175407
H           52.77412175167715       35.12358873067325       46.07006340907840
H           53.28984650713500       33.13666901253519       44.69850033267141
H           51.71553818018522       32.43792167236166       42.92064649706553
H           49.64468729140175       33.68556130511035       42.55626643993447
H           49.29410555886871       37.84277583306675       44.51839154316509
H           49.74298738499835       37.42589288103780       42.86339421945355
H           48.87700456339826       38.08897142891652       40.63077983698153
H           48.07857525510774       37.04962013673786       38.55942154318831
H           45.94677123132169       35.80582105676740       38.53443999402451
H           44.61624960352604       35.61901180089402       40.60279250228964
H           45.40433287037841       36.67970672929949       42.67634136048021
H           50.25971946262119       41.17097917685863       44.13285565548012
H           51.91912809925084       40.91946142131409       45.90289759820731
H           51.31488794639242       39.81977887113197       48.02469448844558
H           49.01221522775187       38.95815053429553       48.34657306595765
H           47.34624596498513       39.22568589050772       46.57478902644424
H           45.77279799475482       44.76355313858662       43.66829045253575
H           46.56821196541195       47.01820331458337       43.12080346479213
H           48.79296319142406       47.76998349309164       43.86901147208923
H           50.25484128255790       46.21366793647495       45.11142402239318
H           49.46636796967218       43.92998304333902       45.61525341660269
H           47.50506428937790       44.69306484340447       47.79239316686477
H           48.99646309955762       43.93632475207200       49.60001333276293
H           48.67175469070695       41.71320062175228       50.62189400881109
H           46.83743495057861       40.27353823076309       49.84673310914308
H           45.33750025591200       41.02890625811993       48.06058515336243
H           40.85395585175380       42.57876983408977       47.36552568630967
H           39.41455505060207       40.81969443758203       46.48178074596044
H           39.71643868923382       39.99504936193770       44.17730962215540
H           41.54014995460471       40.95293922391217       42.77612504328197
H           42.96580220628549       42.69985865335222       43.65337236467533
H           40.67289791628000       47.50548645177702       48.09817970994678
H           40.19527598799272       48.21142320175316       50.41861462225027
H           41.82851450304129       47.75409835705550       52.20407611014328
H           43.94089835600371       46.58443879437019       51.65485683578638
H           44.41609134512105       45.91659537345671       49.35763645496087
H           45.65433233820950       47.64490538879080       45.46544167055305
H           47.81754809221866       47.44009144616728       46.56091162878552
H           48.09938913610328       48.17177425953637       48.91532602987991
H           46.17449240104712       49.10415955324483       50.14120407284333
H           44.00175389902159       49.32953611294288       49.02066958454712
H           41.70446729131368       52.08891304802689       44.74487258845558
H           40.20175338589913       53.48321306479299       46.09286292990554
H           40.77721095168490       54.00253825772401       48.44937216114945
H           42.84902052418581       53.09693802908401       49.41717979006695
H           44.35569589611651       51.70838924708074       48.04893587306569
H           44.79346050913206       52.81960289275991       41.56713929411294
H           45.08556655015912       52.30506153215507       39.19961729561506
H           46.41575416042809       50.34016972424919       38.49768037538595
H           47.46809855675662       48.90634359860719       40.21582686815401
H           47.22640031552047       49.46645915994560       42.59720620224773
H           47.83255593998430       52.17922510018588       46.57251527737880
H           49.00273084784690       50.42337302285063       47.79406862950363
H           50.60307269909111       48.93976244776206       46.62267964307762
H           50.96277122990536       49.21683181048220       44.19376673943706
H           49.75608839473418       50.95667911839307       42.96042904177081
H           37.69554175860927       38.16949182995434       53.09710132459896
H           36.95437099628683       36.64821884460960       52.59787341456171
H           38.62495446690645       36.66846909041406       53.16570542082510
H           48.26913764886908       52.69947450130095       42.84741080097857
H           48.07149612371446       54.97164882222999       43.81064684510151
H           48.31808382893730       54.31260423570501       45.43027672503875
C           50.59315052853898       55.49899113199691       45.11670244155983
C           50.47788237797581       54.59719479473883       42.78299337707119
C           50.12628940377493       55.78235923689260       42.14636218235486
C           50.53638955178560       56.03754119602438       40.85144979779667
C           51.30778590607440       55.11001574649060       40.17117834351001
C           51.63958686546940       53.91539960136119       40.78391153191290
C           51.22450798602444       53.66086796837742       42.07881961538465
H           49.53168262275740       56.52036413013904       42.66414883937304
H           50.25726315512513       56.96600758509469       40.37405469196542
H           51.64166072417282       55.30971746912105       39.16453117272881
H           52.23731568415283       53.18783651149605       40.25470390902775
H           51.49568313789972       52.72728818001840       42.55066886046214
C           50.76092018806018       55.04203601284120       46.56914557911022
H           51.55108828657898       55.86801358630319       44.74340835414963
H           49.88496082681529       56.32753264082121       45.06631342544230
C           50.79294247166062       56.16830532771669       47.56354024020997
C           51.85937912213133       56.31881130428462       48.44031040899704
C           51.84170413629630       57.30625020809987       49.41112809688554
C           50.75836867392918       58.16114628963518       49.51377877246787
C           49.69713991749311       58.03004439220123       48.63558909704491
C           49.71542309391071       57.04049226688269       47.67206353399885
H           52.70055153022585       55.64161416046282       48.37596493731233
H           52.67413649850787       57.40917918179169       50.09333672369127
H           50.73658563714589       58.92005708298277       50.28123425546539
H           48.84524306195922       58.69032498724191       48.71556255092026
H           48.86931549526612       56.92343301426970       47.01000471207213
H           50.57984623658680       53.42596161486115       44.55142192068654
H           49.92450764514492       54.38886393965227       46.83618980052852
H           51.67308543066432       54.44952098401429       46.65624885645658
C           35.75482846716087       62.97514335690948       64.26862780557144
C           36.10703101644506       61.63939496254322       64.41306368667928
C           35.25495214973852       60.67101503639969       63.89431809087652
C           34.08287764459978       61.02776134104858       63.25214274080111
C           33.73476466560928       62.36264494275321       63.12976037836656
C           34.57656685476434       63.33597449537417       63.63930490997859
C           37.35919526039324       61.26774820080129       65.16824641647024
C           36.97546486788764       60.66732430534217       66.52466862590367
C           38.24395214325568       60.29016035422250       64.38713191815060
C           38.67260502444347       60.84686525061660       63.02423821024782
C           39.35912035612377       62.18564377752669       63.16273292660556
C           38.92819282091479       63.26804407771949       62.40604865178796
C           39.52418676205357       64.51012684563695       62.54029263525375
C           40.55977109092323       64.69199747315717       63.44097020132665
C           41.01152474353012       63.61569232272522       64.18692663489787
C           40.42175567897521       62.37311304903423       64.03992935063073
C           39.61368189927769       59.88813160030428       62.27522107796466
C           39.11527112277150       58.43798904493212       62.08955421286829
C           40.28712928129826       57.65256805388112       61.54470746683425
C           40.55475915992896       57.50129048829407       60.18928793691265
C           41.69286910580761       56.84120591952048       59.75807911231121
C           42.59697166553590       56.33237606501238       60.67324447921345
C           42.35134010505567       56.48951291344490       62.02634172143397
C           41.20655178938802       57.13601631703590       62.45297851146880
C           37.83207573051804       58.40699181740443       61.25734909071028
C           37.03206247347470       57.09289150884995       61.31401880822892
C           35.60446518501741       57.41322259273471       60.93973264319317
C           35.27442852031916       57.81286517777513       59.64942028793724
C           33.97510146540228       58.15303822243034       59.32290487252659
C           32.97903540536594       58.09631585185726       60.28251911333579
C           33.29333649094335       57.69483519324159       61.56878960754911
C           34.59679577472964       57.36067698648537       61.89292625368841
C           37.61937716550467       56.00644788748203       60.40760409864482
C           36.72752103568836       54.75916414665137       60.33082565177314
C           36.66345683777335       54.04133944861513       61.65262732278200
C           35.45639919601678       53.93038650396188       62.33064112945582
C           35.38527231807131       53.27535692972913       63.54747323262979
C           36.52297187391972       52.71606721432138       64.10316111543358
C           37.73058108267290       52.81495659073587       63.43356372420509
C           37.79859097108677       53.47492538165395       62.22008088321131
C           37.23120928594705       53.83987697936900       59.21320914917682
C           36.37829540395471       52.57871681310180       59.02328166093105
C           34.90327150160692       52.87219404933940       58.94693973462838
C           34.00838830052484       52.14455510032610       59.72037832955139
C           32.64702833667708       52.37660190492319       59.63659027314826
C           32.15936947639709       53.34640162256628       58.77822931718334
C           33.04217850884233       54.07922013432599       58.00391130210665
C           34.40175224398891       53.84051740192724       58.08493989606889
C           36.82850829487147       51.86530543112526       57.74109434319706
C           36.18506917591409       50.49468380028319       57.54863386246191
C           36.49527624625156       49.51167689325722       58.65197124808135
C           37.72313133931986       49.46202105676404       59.29842944693027
C           37.98231305835112       48.48808876619534       60.24726458481398
C           37.02451930285910       47.53823460235649       60.55518323641803
C           35.79697127746794       47.57353873373818       59.91511500133353
C           35.53847110741825       48.55596375868129       58.97775544085857
C           36.64580034707404       49.85601780451657       56.22613755354124
C           35.93012068454315       50.36752909954034       54.96339989528271
C           34.43917620826667       50.22771463051026       55.12280027717578
C           33.62643280528020       51.35135550831069       55.19038001130457
C           32.25831477216705       51.22867970888809       55.35874125881086