3536
 energy: -3716.244759373025 gnorm: 0.000985877318 xtb: 6.6.1 (8d0f1dd)
C           64.39654435220540       64.74574356980081       49.60560776204131
C           62.89896031617932       64.52699575611693       49.81257489868727
C           62.40003620609338       63.45168455441546       48.85061259768977
C           62.14486125074958       65.84799317256508       49.61327256632261
C           60.67325602310302       65.83205434125921       50.06406286231960
C           59.79656414055086       66.53427121705779       49.02595200979788
C           60.46903795926186       66.51555573074425       51.42260035948044
C           61.18763907815217       65.87435232698172       52.61411068778066
C           60.63614694536516       64.47872188206640       52.90664332764350
C           61.02324947066327       66.73418756945956       53.87660060319169
C           61.76304766301481       68.07676096169955       53.89207780500413
C           63.27729812063690       67.86657458343127       53.90468525166569
C           61.36321666752713       68.89643823409067       55.12955258101642
C           59.93726008310953       69.46594211849289       55.13536424403616
C           59.75239568729238       70.51052105868453       54.03681792436004
C           59.63949237643804       70.07254913801542       56.51563282181645
C           58.14745299839036       70.26829200748351       56.81943721318007
C           57.99404073680113       71.11724149947126       58.08142509851481
C           57.41747683709974       68.91794570162773       56.96436765504380
C           56.26133610673899       68.73523884720120       55.97107681130219
C           55.03376140687205       69.51804547751958       56.43282907787253
C           55.90645343610041       67.25162286855451       55.79614941914195
C           56.87915267617688       66.48841946120231       54.88886262524750
C           56.60667017732649       66.81626598738124       53.42062851706855
C           56.78537525987498       64.96972237619755       55.08332994620304
C           57.31391118771827       64.42397505719865       56.41489314921552
C           58.82884775365270       64.58719822766845       56.51788203064692
C           56.94861014242498       62.93706673386801       56.55169122187498
C           55.48580503309923       62.68533868164855       56.93741803269457
C           55.29068578282932       62.93124276036860       58.43172881847840
C           55.03857969408307       61.25401152040079       56.61320518792968
C           54.86170685343377       60.92995126889149       55.12613858877984
C           53.64669133878473       61.65413663637192       54.54819828078639
C           54.69623590896860       59.41892626223872       54.90007426775600
C           55.84105011740881       58.54124651856966       55.41932869898540
C           57.19749319450949       59.05687408424619       54.94250200697629
C           55.69442105752662       57.09014840461339       54.94691797307464
C           54.41526215388371       56.34625217258296       55.35088990807768
C           54.11411334517430       56.48671203816205       56.84238877133402
C           54.55378277280902       54.85326998865220       55.01191839406813
C           54.69672355108568       54.53717789508416       53.51853032950145
C           53.34776908988593       54.65895799907431       52.81429321958571
C           55.28230368505080       53.13397264213869       53.30373302442995
C           56.80363580528362       53.03652309462969       53.49721176135196
C           57.54727751195993       53.67533557975140       52.32672134126628
C           57.18967175135754       51.55894862822787       53.65840903775354
C           58.68610016694358       51.25335369812092       53.83100477620668
C           58.87709325384253       49.73773757355281       53.86056517129050
C           59.23232335196266       51.89723875936208       55.10825296006972
C           60.75407806847792       51.84729212228844       55.31401561965419
C           61.05074152828468       52.38126738561147       56.71363619574155
C           61.47548862011745       52.65786997553176       54.22799207420201
C           62.97153566946076       52.94015981660532       54.44018065325763
C           63.43075095916691       53.94256239975867       53.38102846217730
C           63.79834874226717       51.65170681864668       54.37122727809460
C           65.24785329765899       51.76453449637983       54.87149497889546
C           66.04212063085548       50.56390311727822       54.35728794265803
C           65.29074238508240       51.81342973288010       56.40292390113677
C           66.65034487907492       52.20295403388228       57.00616982408856
C           66.77076516294662       51.59040173291282       58.39936419349077
C           66.80075103354753       53.72882916849493       57.04510997092270
C           68.19789569108968       54.25162136376468       57.41058569030590
C           68.10607480805125       55.73675297780807       57.76482849857084
C           69.19217793289459       54.04410788251235       56.26214670142502
C           70.66831512244461       54.06655359631775       56.68984638237519
C           71.54072428853004       54.40325282729621       55.48134846547268
C           71.05613181359229       52.71454190345008       57.29933577002116
C           72.46518697242853       52.60834258579282       57.89809136652345
C           72.72541660513043       51.14535292760090       58.26563588695488
C           72.66512159713513       53.49734473427264       59.13928581088980
C           73.34596856046629       54.84942273339178       58.88958765113125
C           74.79128021864838       54.66391743137354       58.42650753761565
C           73.35489774223286       55.70676715689253       60.16429107562999
C           71.96408070548325       56.11483551736946       60.69332013562821
C           71.88045629314597       57.63305696919581       60.84209527045658
C           71.68728337103352       55.41902627595469       62.03260747974455
C           70.25684376289838       55.53050726851973       62.58148379184480
C           70.25022858802076       55.02130857350516       64.02224090538773
C           69.28627751073583       54.73594177898978       61.69910534627412
C           67.84015494896397       54.60786449561342       62.19977461718395
C           67.09652029492494       53.65197265399797       61.26711511546058
C           67.13427871217011       55.96732216686075       62.26743520872705
C           65.75848270396826       55.92004000356820       62.94584315587952
C           64.94238536392866       57.16308536813938       62.59431954165214
C           65.87685925617835       55.78447589135239       64.47141202104527
C           64.75736315271985       54.92959294261808       65.08345683477367
C           64.50412159237479       55.33755806254041       66.53091985702164
C           65.13378477486621       53.44744646915480       64.98156941479381
C           63.98373658459143       52.47201015926177       65.21393643003429
C           64.43807041735937       51.03567274674970       64.97955221275917
H           64.59022106950560       65.11896680024699       48.60157034562292
H           64.78512549167552       65.46913485671487       50.31948937976652
H           64.93920770175592       63.81263687812280       49.73546988303600
H           64.76277268673435       50.90380628479175       63.94980569811407
H           65.27392054326145       50.79022869602508       65.63133334205088
H           63.63038509269057       50.33534005340187       65.17979466803112
H           65.53932813283859       53.25642079044000       63.98574040587063
H           65.92528763558136       53.23952306916757       65.70547584196612
H           66.83421883504606       55.33613128092554       64.74110372299454
H           65.85988830071332       56.78104826536058       64.91493462873339
H           65.21170905684295       55.05678913263678       62.55888487779558
H           65.45166808408140       58.06618359588997       62.92494943232796
H           64.79268806721707       57.23549613528245       61.51921834757407
H           63.96756887456812       57.12764649429605       63.07705030629483
H           67.76035536480423       56.67847689753993       62.80915679415988
H           67.01829450398147       56.34507186958137       61.24848511789092
H           69.25844657101551       55.19001919987150       60.70647694571616
H           69.69053228515271       53.72537735991054       61.58923204018546
H           63.83571450914293       55.09893816518663       64.51412213244652
H           63.71771183713318       54.72943642753249       66.96774999836840
H           65.40479816243619       55.21266224341421       67.12593676788016
H           64.19631788953268       56.37920544052680       66.58807289874321
H           67.85222795828544       54.15914113821358       63.19642748827533
H           66.09604925440449       53.43252244482785       61.63124923487045
H           67.01336934139519       54.08079420206447       60.27173867905292
H           67.63216903988200       52.70833494058596       61.19025317645064
H           69.96416918616350       56.58370001208201       62.59009409204951
H           69.28729142224202       55.19215829040240       64.49504820655393
H           70.46423731688222       53.95501171621913       64.04698963702864
H           71.00593440096129       55.53873067668103       64.60982786898217
H           71.92810633820227       54.35763187848036       61.93593663248434
H           72.37395891039934       55.84175757646592       62.77104434357994
H           71.20862022183626       55.80940526811784       59.96426788012462
H           72.59322894877654       57.98252555492833       61.58661060591223
H           72.10547350468170       58.11821120601624       59.89539070701141
H           70.88470186670857       57.94099575728328       61.15108920180325
H           73.89695438556957       55.16273281890343       60.94107562498833
H           73.93121494579636       56.60947270962986       59.95149984075442
H           72.80220208826847       55.39400474887451       58.11198719021929
H           74.84848605017613       54.09204926434217       57.50424354974270
H           75.25991304993651       55.62994038194096       58.25007046155649
H           75.36646222241158       54.13922365028972       59.18692914181870
H           71.69265239206983       53.66565454286887       59.60345325506019
H           73.27824889280585       52.95633271850821       59.86445313609726
H           73.18945623912079       52.88511002182786       57.12953145398955
H           72.60334093666204       50.50152421492054       57.39693807143854
H           73.73843075512492       51.01842558312676       58.64087365428334
H           72.02820638226567       50.81714543543809       59.03398606433570
H           70.33604714010677       52.45768687666324       58.08008756190529
H           70.96450344954265       51.95685476328686       56.51558435033692
H           70.80167973043156       54.84775851076960       57.44248774495357
H           71.24245612628341       55.35751061353265       55.05155286850714
H           72.58881441046238       54.47573755883214       55.75755496321916
H           71.43974783588315       53.63719092935719       54.71494212609379
H           68.99468234918480       53.09119284486189       55.76774726592294
H           69.02192051707061       54.83099713135882       55.52497162209081
H           68.55598550740133       53.71618998129466       58.29383869018838
H           67.70400941420537       56.30183417373972       56.92606739641994
H           67.45539476223091       55.88937477336710       58.62422248334253
H           69.08547557851071       56.14216267681956       58.00821700485558
H           66.53080095118214       54.13679025090363       56.06813437214565
H           66.08284570614866       54.12020984710843       57.77027629118562
H           67.44818600689888       51.78271961346928       56.38882966974617
H           65.99115890959176       51.97643075048843       59.05263759027151
H           66.66876922061593       50.50892687566147       58.34116459644073
H           67.73689998159317       51.80972863668624       58.84465797289775
H           64.54354229134354       52.51976384568948       56.77038498040502
H           65.00946798278358       50.82584053287846       56.77232887770702
H           65.70127993199245       52.67545521182618       54.46960305477764
H           66.07052588044222       50.55810650992182       53.27149655753772
H           67.06689090155699       50.58197056598662       54.71840452872357
H           65.58076390722910       49.63850240535971       54.69531010520497
H           63.30514856372086       50.87334648124925       54.95608177422961
H           63.80947851525902       51.31713429591243       53.33161855397977
H           63.11161441485231       53.40851501183141       55.41729010214036
H           62.87257771477930       54.87176794330566       53.47107188358252
H           64.48728947189018       54.17143899099239       53.48939015017270
H           63.26935911457854       53.54335600328893       52.38107315902058
H           61.36359399873783       52.14039822037813       53.27321252465678
H           60.96579859253398       53.62079132370099       54.13676685752879
H           61.08610972404601       50.80654725258361       55.26635927257228
H           62.09940232577218       52.25329859224275       56.96626884282025
H           60.79857661831247       53.43724394419542       56.77719395990616
H           60.45732066641412       51.84768136243947       57.45258862661677
H           58.93808040281508       52.94800529116316       55.13034840954620
H           58.75533794387099       51.40631019573186       55.96117091136077
H           59.22518203429291       51.64548033173114       52.96615454114383
H           58.37317213520650       49.30715715891207       54.72381895572055
H           58.46153799086635       49.28518325942991       52.96164075319262
H           59.93117744962141       49.47904698511387       53.91230974505785
H           56.65472745027075       51.15440702123264       54.52244710376239
H           56.83306281029124       51.02201333024916       52.77476440478433
H           57.06608869660363       53.57734086186886       54.41078804210824
H           58.61762040606853       53.70214321600279       52.51142831014280
H           57.36644841797221       53.11570558123260       51.41114985043243
H           57.21808133749318       54.69934872218576       52.17309898403898
H           54.79116602568256       52.44629287737784       53.99613019049747
H           55.04656916562579       52.80264321249327       52.29010500642471
H           55.37672090058823       55.26110269498734       53.06766544642668
H           52.91265393875891       55.64030240695553       52.98711057050642
H           53.46508819729422       54.52262251039462       51.74330111848450
H           52.65808725874564       53.90388511232405       53.18120426815512
H           55.42382212326885       54.46858399613456       55.54838429115352
H           53.67729942281905       54.32005335764871       55.39054146766005
H           53.57167135066389       56.76148224317706       54.79117738101106
H           53.24426980810278       55.88914286842610       57.10668930610900
H           54.95752869151448       56.14496147109725       57.43631262166421
H           53.90278457377006       57.51846582486515       57.10891013053322
H           55.76808454249758       57.09451764713626       53.85779501815821
H           56.54857909811961       56.52544785328993       55.32972638467787
H           55.83783229345429       58.54641233066879       56.51233219409121
H           57.40774805712879       60.04109537743439       55.34758332168602
H           57.98772988390290       58.38615179041361       55.26651525341913
H           57.22088726716299       59.11819891167112       53.85660183193732
H           53.76214555190804       59.10335634081674       55.36883600901488
H           54.59547322733064       59.24430867730936       53.82552207681407
H           55.74175056642110       61.26580851901408       54.57210277366603
H           53.46635638434406       61.33478591838045       53.52429356293275
H           52.75675335300256       61.43509391151311       55.13505880017586
H           53.80041309505702       62.73021056628296       54.54176269372253
H           55.77201248041867       60.57587403291450       57.04866625078053
H           54.08529139176987       61.06679209967364       57.11451844332110
H           54.84812971086233       63.38281587791796       56.39387417601129
H           55.88746116706423       62.22919529922110       59.01146279898791
H           55.59082456728449       63.93911270639618       58.70443032222463
H           54.24588742660780       62.80303762827686       58.70341952374602
H           57.17604059741375       62.44982485760101       55.60188444513079
H           57.58685897945830       62.48175487254833       57.31304531836759
H           56.85773827257466       64.97562215983909       57.24153288813590
H           59.17828765178586       64.23597972175952       57.48567811517750
H           59.32657505122532       64.01192862364412       55.74058346239161
H           59.12142832893890       65.62871669461872       56.41637093605900
H           55.73974305323578       64.67857246767423       54.96331260179030
H           57.34908261687145       64.48796740722656       54.28100580796002
H           57.89906157415040       66.80513596486483       55.12023570981653
H           56.65257490831205       67.88819017496058       53.24375365897671
H           57.34366210227843       66.33629181292869       52.77934264605357
H           55.61934957457230       66.46026801124795       53.13011983015704
H           55.87485615949932       66.78944893823477       56.78447658693280
H           54.90526717072524       67.17144023709405       55.36518838103650
H           56.57174429805121       69.13473701376081       55.00054754736487
H           55.27428968492222       70.56941243331759       56.56776460412860
H           54.23125528802429       69.44773573846572       55.70126073820849
H           54.66762725870096       69.12401464605610       57.37861286131932
H           58.13460836706995       68.10756013991720       56.83047453214253
H           57.02243590072904       68.81961002227331       57.97734876662457
H           57.69591169429997       70.82499329699452       55.99266326251854
H           58.43712488872008       72.10080342215488       57.93927268579540
H           56.94403503885608       71.25014172584913       58.33254054509396
H           58.49287877973853       70.64096900345250       58.92295213415251
H           60.06073649754651       69.42894699323119       57.29228629006535
H           60.14718660684509       71.03743178051602       56.58622442057150
H           59.22862318453402       68.65456069821033       54.95397052487206
H           60.49901051943232       71.29675016708305       54.12939808017831
H           59.84457628066955       70.06182107725083       53.05103536307196
H           58.76769236361378       70.96708063145033       54.10150407967728
H           61.49073145953784       68.25985551100867       56.00924393985896
H           62.05844526549782       69.73355614680609       55.23254728019141
H           61.50834368032801       68.64768323234857       52.99609620910898
H           63.57216936809832       67.28294490567551       54.77460584334096
H           63.60875922081181       67.34206426476808       53.01249109642057
H           63.79458708983686       68.82292971057934       53.94166499470601
H           59.95573341067654       66.91429306048515       54.01182861664631
H           61.37074675246561       66.15390096013461       54.73528063403842
H           62.25086249899683       65.78101073451636       52.38300514440807
H           60.74864635531316       63.81930191423284       52.05018214674524
H           61.16629460229849       64.03289401370628       53.74625795971146
H           59.57911197008038       64.53815403407965       53.15941221747251
H           60.79781279535452       67.55213048433193       51.32489174239765
H           59.39761476340825       66.53579240507744       51.64067401714323
H           60.32904466021314       64.79737419697044       50.13707591443242
H           59.88549750337590       66.04681694632917       48.05809776783690
H           58.75134793177130       66.51069887555084       49.32618912412157
H           60.09569827888554       67.57505615235806       48.91702440800394
H           62.67152140984352       66.64083564021362       50.14893666030594
H           62.19248381501153       66.09857508136349       48.55084076607390
H           62.74349121864321       64.17324551985340       50.83588001789003
H           62.54147423726774       63.76884258990767       47.81907168133100
H           62.94742259607888       62.52384342524581       48.99994532777814
H           61.34386224759365       63.24571211501889       49.00499075525369
H           63.60623158079125       52.56756816660892       66.23337860572566
H           63.16132491289733       52.71207250448707       64.53531381263315
C           39.66576186412446       45.72248553939092       64.46433064091711
C           38.62116325018722       46.07542218568016       65.51966756502507
C           38.06981213132327       44.79377864221528       66.14272908801003
C           37.47512506467023       46.90166958849714       64.91995018413317
C           37.78077573874444       48.39224755620180       64.70268795395502
C           37.81218703298876       49.13275677352465       66.03740701305037
C           36.71022445286026       48.96944599589189       63.76363600782374
C           36.73566655581210       50.48549814985083       63.51548783083499
C           35.48995499652008       50.86365489033135       62.71288870424748
C           38.01110303421200       50.91203071643015       62.77998458086275
C           38.25920281895147       52.42801676177482       62.70752766961767
C           39.31792061138988       52.71322449320869       61.64331054081573
C           38.69144774051436       52.96082980730883       64.07950800032164
C           38.97763408227909       54.46688242039892       64.18397122051829
C           39.53802259284873       54.75102316205702       65.57819787493246
C           37.71563335669426       55.29517035526161       63.91944538857177
C           37.93411385676070       56.81124015439440       63.81831067779792
C           36.57487084279214       57.50960225483896       63.75909826852136
C           38.79063626158631       57.19349412874472       62.59529393346621
C           40.17976440958008       57.74040428789158       62.94696635385499
C           40.05794298583665       59.13785978956087       63.55515438574957
C           41.08104156720398       57.81661751492766       61.70635620674943
C           41.58923475563790       56.47690320299315       61.15992408198659
C           42.62187570568403       55.85610627375488       62.10010166327418
C           42.22714873546481       56.66589335678277       59.77526610097275
C           41.24857368238398       56.93858791905607       58.62813816151151
C           40.40019046188144       55.70238812830750       58.32594003078393
C           41.98459366895406       57.34871538270606       57.34399568942629
C           42.80762878909913       58.64413382051023       57.39048883121956
C           41.96590138007176       59.82400249672418       57.87676890426545
C           43.36818307808440       58.94517295356358       55.99152629887648
C           44.58327378566122       58.10306996487564       55.57362934215277
C           45.88426660184007       58.75871886003340       56.03383873699274
C           44.60669012414360       57.92793208836699       54.04834019470567
C           43.68772294407692       56.80165408463138       53.55261162293863
C           44.42467384803692       55.46642754744746       53.61885949075965
C           43.20781542976049       57.08979909739114       52.12525218239209
C           42.06336272567949       56.18343725510579       51.63412938518794
C           42.38280587034438       55.62366780826902       50.24804656898436
C           40.72461163145312       56.93207674306106       51.57701597143168
C           40.18650589791616       57.42008436098169       52.92937420240155
C           39.72901905879274       56.24239969029968       53.78711803543134
C           39.03957346635146       58.41146624127050       52.68296463478029
C           38.48204643776182       59.11350626071969       53.92700184991040
C           37.22887584569227       59.90359982740426       53.54521933405402
C           39.49690886253896       59.99229011859988       54.67735679791691
C           40.05112700475195       61.22510337109960       53.94273527022491
C           41.38368356731058       60.92252194849952       53.25761809828254
C           40.25929640925526       62.39394981835405       54.92146407976734
C           38.97257976229063       63.07715414812648       55.39695311327490
C           38.34326840814629       63.88929014458152       54.26369006520223
C           39.22689963582174       64.02492243190838       56.57958343961936
C           39.72322678612578       63.40793801249303       57.89607772718157
C           38.76612579080027       62.33498758428267       58.41328799411660
C           39.89421802005052       64.52103143227434       58.95300034068160
C           41.33949758647100       64.89133532634098       59.32320688388314
C           42.13876138992502       65.31796416879052       58.09355597651354
C           42.07028663269967       63.77370801651229       60.08184427340189
C           41.61960780852302       63.59900979420473       61.53932748254388
C           42.06032748295027       64.77167914728238       62.41307849920160
C           42.09056548424439       62.25324627887551       62.11781042051243
C           43.61199441263359       62.10245039606737       62.32616930672301
C           44.08388795129185       60.74934062109359       61.79640029325586
C           43.96084151510728       62.25409094976700       63.81293636966644
C           45.45201550740618       62.30763116658687       64.17578639090108
C           45.57937932279732       62.23840939700577       65.70087768880711
C           46.15523639963489       63.58503735576451       63.68490893049429
C           46.87063535086413       63.52792487620590       62.32821353095736
C           47.95438954804268       62.45014764171795       62.31365343812282
C           47.53602595149084       64.88109844432400       62.02879202262405
C           46.59151581522799       66.06198033397088       61.77715615737247
C           45.96460205692922       65.97225501123260       60.38517430572453
C           47.33074785906935       67.40211918101591       61.90755482707399
C           47.85761175671546       67.77466246102095       63.30359243589648
C           46.73805710625966       67.76624769426945       64.34159527447332
C           48.51959969711874       69.15797277480758       63.19821249250489
C           49.19063397949906       69.70537387743508       64.46659233103270
C           49.50956298514432       71.18567210040973       64.25641535872282
C           50.45874632549506       68.92522544346647       64.83385834594652
C           50.99812158252903       69.25125659542429       66.24107423868946
C           52.30043725652483       70.04869448351633       66.16713138176448
C           51.23970963445223       67.98224244360510       67.06909763419766
C           49.96767957898724       67.22449463327602       67.46929118331487
C           49.24420832291027       67.94126725766124       68.60814503897043
C           50.31527747217775       65.79239890557317       67.89884721622032
C           50.63316809735954       64.85149961806103       66.72893694365041
C           49.34110718357747       64.29048988807914       66.13684972911928
C           51.55306536405662       63.70577277442455       67.16711381776133
C           53.00232912535578       64.14291361539743       67.37093154315208
C           53.87892308118160       62.99772506967125       67.86144358872245
H           39.22980241866254       45.07060975080815       63.70915513355708
H           40.04324025890340       46.61523697034800       63.97304201129746
H           40.50720663170080       45.20273354741141       64.91784212352012
H           54.91577381933359       63.31470027504272       67.94218732333580
H           53.55059971966381       62.65533128720495       68.83933620806224
H           53.82796539394568       62.15785639345459       67.17272248437267
H           51.16619759608448       63.27040259265404       68.09051454499004
H           51.53238649600048       62.92474458983400       66.40429155901316
H           51.16601389911418       65.83994250412540       68.58037862272847
H           49.47744347053540       65.37092659768282       68.45906608795367
H           49.29004616453170       67.17954088822597       66.61170940513702
H           48.31544433627334       67.42966056929485       68.85255806304245
H           49.86833133406367       67.96287078874707       69.49959933396332
H           49.00280720153700       68.96570669060817       68.33612003430044
H           51.89544906533995       67.32238408557880       66.49685874717056
H           51.77498520356566       68.25359430890255       67.98287370383061
H           50.24359430598226       67.85843701065230       64.77105241823782
H           51.22702172458751       69.14028449023471       64.08876552277292
H           51.15106011434657       65.41462585661878       65.94515563334897
H           48.66725506004503       65.09476914396694       65.84906935199031
H           49.55111900339748       63.68580941762905       65.25611333787494