      -----------------------------------------------------------      
     |                   =====================                   |     
     |                           x T B                           |     
     |                   =====================                   |     
     |                         S. Grimme                         |     
     |          Mulliken Center for Theoretical Chemistry        |     
     |                    University of Bonn                     |     
      -----------------------------------------------------------      

   * xtb version 6.6.1 (8d0f1dd) compiled by 'stahn@M-Bot' on 2023-08-01

   xtb is free software: you can redistribute it and/or modify it under
   the terms of the GNU Lesser General Public License as published by
   the Free Software Foundation, either version 3 of the License, or
   (at your option) any later version.
   
   xtb is distributed in the hope that it will be useful,
   but WITHOUT ANY WARRANTY; without even the implied warranty of
   MERCHANTABILITY or FITNESS FOR A PARTICULAR PURPOSE.  See the
   GNU Lesser General Public License for more details.
   
   Cite this work as:
   * C. Bannwarth, E. Caldeweyher, S. Ehlert, A. Hansen, P. Pracht,
     J. Seibert, S. Spicher, S. Grimme, WIREs Comput. Mol. Sci., 2020, 11,
     e01493. DOI: 10.1002/wcms.1493
   
   for GFN2-xTB:
   * C. Bannwarth, S. Ehlert and S. Grimme., J. Chem. Theory Comput., 2019,
     15, 1652-1671. DOI: 10.1021/acs.jctc.8b01176
   for GFN1-xTB:
   * S. Grimme, C. Bannwarth, P. Shushkov, J. Chem. Theory Comput., 2017,
     13, 1989-2009. DOI: 10.1021/acs.jctc.7b00118
   for GFN0-xTB:
   * P. Pracht, E. Caldeweyher, S. Ehlert, S. Grimme, ChemRxiv, 2019, preprint.
     DOI: 10.26434/chemrxiv.8326202.v1
   for GFN-FF:
   * S. Spicher and S. Grimme, Angew. Chem. Int. Ed., 2020, 59, 15665-15673.
     DOI: 10.1002/anie.202004239
   
   for ALPB and GBSA implicit solvation:
   * S. Ehlert, M. Stahn, S. Spicher, S. Grimme, J. Chem. Theory Comput.,
     2021, 17, 4250-4261. DOI: 10.1021/acs.jctc.1c00471
   
   for DFT-D4:
   * E. Caldeweyher, C. Bannwarth and S. Grimme, J. Chem. Phys., 2017,
     147, 034112. DOI: 10.1063/1.4993215
   * E. Caldeweyher, S. Ehlert, A. Hansen, H. Neugebauer, S. Spicher,
     C. Bannwarth and S. Grimme, J. Chem. Phys., 2019, 150, 154122.
     DOI: 10.1063/1.5090222
   * E. Caldeweyher, J.-M. Mewes, S. Ehlert and S. Grimme, Phys. Chem. Chem. Phys.
     2020, 22, 8499-8512. DOI: 10.1039/D0CP00502A
   
   for sTDA-xTB:
   * S. Grimme and C. Bannwarth, J. Chem. Phys., 2016, 145, 054103.
     DOI: 10.1063/1.4959605
   
   in the mass-spec context:
   * V. Asgeirsson, C. Bauer and S. Grimme, Chem. Sci., 2017, 8, 4879.
     DOI: 10.1039/c7sc00601b
   * J. Koopman and S. Grimme, ACS Omega 2019, 4, 12, 15120-15133.
     DOI: 10.1021/acsomega.9b02011
   
   for metadynamics refer to:
   * S. Grimme, J. Chem. Theory Comput., 2019, 155, 2847-2862
     DOI: 10.1021/acs.jctc.9b00143
   
   for SPH calculations refer to:
   * S. Spicher and S. Grimme, J. Chem. Theory Comput., 2021, 17, 1701-1714
     DOI: 10.1021/acs.jctc.0c01306
   
   with help from (in alphabetical order)
   P. Atkinson, C. Bannwarth, F. Bohle, G. Brandenburg, E. Caldeweyher
   M. Checinski, S. Dohm, S. Ehlert, S. Ehrlich, I. Gerasimov, C. Hölzer
   A. Katbashev, J. Koopman, C. Lavigne, S. Lehtola, F. März, M. Müller,
   F. Musil, H. Neugebauer, J. Pisarek, C. Plett, P. Pracht, F. Pultar,
   J. Seibert, P. Shushkov, S. Spicher, M. Stahn, M. Steiner, T. Strunk,
   J. Stückrath, T. Rose, and J. Unsleber
   
 * started run on 2024/06/17 at 15:18:45.986     

           -------------------------------------------------
          |                Calculation Setup                |
           -------------------------------------------------

          program call               : /home/abt-grimme/AK-bin/xtb input.xyz --input input.inp --opt --gbsa water
          hostname                   : boar048.thch.uni-bonn.de
          coordinate file            : input.xyz
          omp threads                :                     8

   ID    Z sym.   atoms
    1    6 C      1-120, 363-482, 725-844, 1087-1206, 1449-1568, 1811-1930,
                  2173-2292, 2535-2654, 2897-3016
    2    1 H      121-362, 483-724, 845-1086, 1207-1448, 1569-1810,
                  1931-2172, 2293-2534, 2655-2896, 3017-3258

molecular fragmentation (1/2 indicates fragments):
111111111111111111111111111111111111111111111111111111111111111111111111
111111111111111111111111111111111111111111111111111111111111111111111111
111111111111111111111111111111111111111111111111111111111111111111111111
111111111111111111111111111111111111111111111111111111111111111111111111
111111111111111111111111111111111111111111111111111111111111111111111111
112222222222222222222222222222222222222222222222222222222222222222222222
222222222222222222222222222222222222222222222222222222222222222222222222
222222222222222222222222222222222222222222222222222222222222222222222222
222222222222222222222222222222222222222222222222222222222222222222222222
222222222222222222222222222222222222222222222222222222222222222222222222
222222222222222222222222222222222222222222222222222222222222222222222222
222222222222222222222222222222222222222222222222222222222222222222222222
222222222222222222222222222222222222222222222222222222222222222222222222
222222222222222222222222222222222222222222222222222222222222222222222222
222222222222222222222222222222222222222222222222222222222222222222222222
222222222222222222222222222222222222222222222222222222222222222222222222
222222222222222222222222222222222222222222222222222222222222222222222222
222222222222222222222222222222222222222222222222222222222222222222222222
222222222222222222222222222222222222222222222222222222222222222222222222
222222222222222222222222222222222222222222222222222222222222222222222222
222222222222222222222222222222222222222222222222222222222222222222222222
222222222222222222222222222222222222222222222222222222222222222222222222
222222222222222222222222222222222222222222222222222222222222222222222222
222222222222222222222222222222222222222222222222222222222222222222222222
222222222222222222222222222222222222222222222222222222222222222222222222
222222222222222222222222222222222222222222222222222222222222222222222222
222222222222222222222222222222222222222222222222222222222222222222222222
222222222222222222222222222222222222222222222222222222222222222222222222
222222222222222222222222222222222222222222222222222222222222222222222222
222222222222222222222222222222222222222222222222222222222222222222222222
222222222222222222222222222222222222222222222222222222222222222222222222
222222222222222222222222222222222222222222222222222222222222222222222222
222222222222222222222222222222222222222222222222222222222222222222222222
222222222222222222222222222222222222222222222222222222222222222222222222
222222222222222222222222222222222222222222222222222222222222222222222222
222222222222222222222222222222222222222222222222222222222222222222222222
222222222222222222222222222222222222222222222222222222222222222222222222
222222222222222222222222222222222222222222222222222222222222222222222222
222222222222222222222222222222222222222222222222222222222222222222222222
222222222222222222222222222222222222222222222222222222222222222222222222
222222222222222222222222222222222222222222222222222222222222222222222222
222222222222222222222222222222222222222222222222222222222222222222222222
222222222222222222222222222222222222222222222222222222222222222222222222
222222222222222222222222222222222222222222222222222222222222222222222222
222222222222222222222222222222222222222222222222222222222222222222222222
222222222222222222
# atoms in fragment 1/2:   362  2896
 fragment masses (1/2) :     1685.21    13481.68
CMA distance (Bohr)    :  14.216
constraining FC (au)   :  0.0500

           -------------------------------------------------
          |                 G F N 2 - x T B                 |
           -------------------------------------------------

        Reference                      10.1021/acs.jctc.8b01176
      * Hamiltonian:
        H0-scaling (s, p, d)           1.850000    2.230000    2.230000
        zeta-weighting                 0.500000
      * Dispersion:
        s8                             2.700000
        a1                             0.520000
        a2                             5.000000
        s9                             5.000000
      * Repulsion:
        kExp                           1.500000    1.000000
        rExp                           1.000000
      * Coulomb:
        alpha                          2.000000
        third order                    shell-resolved
        anisotropic                    true
        a3                             3.000000
        a5                             4.000000
        cn-shift                       1.200000
        cn-exp                         4.000000
        max-rad                        5.000000

      * Solvation model:               GBSA
        Solvent                        water
        Parameter file                 internal GFN2-xTB/GBSA
        Dielectric constant                8.0200E+01
        Reference state                gsolv [1 M gas/solution]
        Free energy shift                  1.8574E-03 Eh       1.1656E+00 kcal/mol
        Temperature                        2.9815E+02 K
        Density                            1.0000E+00 kg/L
        Solvent mass                       1.8000E+01 g/mol
        Interaction kernel             Still
        Born radius scaling (c1)           1.5524E+00
        Born radii integrator          GBOBC
        Born offset                        2.4628E-02 a0       4.6540E-02 AA
        H-bond correction              true
        Ion screening                  false
        Surface tension                    1.0000E-05 Eh       1.5569E+01 dyn/cm
        Grid points                               230 per atom
q/qsh data taken from xtbrestart
CAMM data taken from xtbrestart

          ...................................................
          :                      SETUP                      :
          :.................................................:
          :  # basis functions                6498          :
          :  # atomic orbitals                6498          :
          :  # shells                         4338          :
          :  # electrons                      6498          :
          :  max. iterations                   250          :
          :  Hamiltonian                  GFN2-xTB          :
          :  restarted?                       true          :
          :  GBSA solvation                   true          :
          :  PC potential                    false          :
          :  electronic temp.          300.0000000     K    :
          :  accuracy                    1.0000000          :
          :  -> integral cutoff          0.2500000E+02      :
          :  -> integral neglect         0.1000000E-07      :
          :  -> SCF convergence          0.1000000E-05 Eh   :
          :  -> wf. convergence          0.1000000E-03 e    :
          :  Broyden damping             0.4000000          :
          ...................................................

 iter      E             dE          RMSdq      gap      omega  full diag
   1  -3472.3622616 -0.347236E+04  0.690E-05   10.67       0.0  T
   2  -3472.3622616 -0.310592E-08  0.532E-05   10.67      32.9  T
   3  -3472.3622616 -0.436739E-08  0.268E-05   10.67      65.3  T

   *** convergence criteria satisfied after 3 iterations ***

         #    Occupation            Energy/Eh            Energy/eV
      -------------------------------------------------------------
         1        2.0000           -0.6169457             -16.7879
       ...           ...                  ...                  ...
      3243        2.0000           -0.3870081             -10.5310
      3244        2.0000           -0.3868475             -10.5267
      3245        2.0000           -0.3864999             -10.5172
      3246        2.0000           -0.3857067             -10.4956
      3247        2.0000           -0.3851940             -10.4817
      3248        2.0000           -0.3845897             -10.4652
      3249        2.0000           -0.3829201             -10.4198 (HOMO)
      3250                          0.0092830               0.2526 (LUMO)
      3251                          0.0129588               0.3526
      3252                          0.0144340               0.3928
      3253                          0.0153250               0.4170
      3254                          0.0170919               0.4651
       ...                                ...                  ...
      6498                          0.3868628              10.5271
      -------------------------------------------------------------
                  HL-Gap            0.3922031 Eh           10.6724 eV
             Fermi-level           -0.1868186 Eh           -5.0836 eV

 SCC (total)                   0 d,  0 h,  6 min, 54.321 sec
 SCC setup                      ...        0 min,  1.723 sec (  0.416%)
 Dispersion                     ...        0 min,  3.565 sec (  0.861%)
 classical contributions        ...        0 min,  0.120 sec (  0.029%)
 integral evaluation            ...        0 min,  5.947 sec (  1.435%)
 iterations                     ...        3 min,  7.317 sec ( 45.211%)
 molecular gradient             ...        3 min, 27.156 sec ( 49.999%)
 printout                       ...        0 min,  8.493 sec (  2.050%)

         :::::::::::::::::::::::::::::::::::::::::::::::::::::
         ::                     SUMMARY                     ::
         :::::::::::::::::::::::::::::::::::::::::::::::::::::
         :: total energy           -3426.899321344679 Eh    ::
         :: total w/o Gsasa/hb     -3426.807367207591 Eh    ::
         :: gradient norm              0.635233950679 Eh/a0 ::
         :: HOMO-LUMO gap             10.672388438976 eV    ::
         ::.................................................::
         :: SCC energy             -3472.362261637667 Eh    ::
         :: -> isotropic ES            0.279573773857 Eh    ::
         :: -> anisotropic ES          1.296266409494 Eh    ::
         :: -> anisotropic XC          2.134524198942 Eh    ::
         :: -> dispersion             -4.266509630549 Eh    ::
         :: -> Gsolv                  -0.029619714929 Eh    ::
         ::    -> Gelec                0.062334422160 Eh    ::
         ::    -> Gsasa               -0.089787993951 Eh    ::
         ::    -> Ghb                 -0.004023586265 Eh    ::
         ::    -> Gshift               0.001857443127 Eh    ::
         :: repulsion energy          44.765349842818 Eh    ::
         :: add. restraining           0.000000000000 Eh    ::
         :: total charge              -0.000000000015 e     ::
         :::::::::::::::::::::::::::::::::::::::::::::::::::::

      ----------------------------------------------------------- 
     |              Fast Inertial Relaxation Engine              |
      ----------------------------------------------------------- 

          ...................................................
          :                      SETUP                      :
          :.................................................:
          :   energy convergence        0.5000000E-05 Eh    :
          :   grad. convergence         0.1000000E-02 Eh/a0 :
          :   optimization log               true           :
          :   writing optlog all                1     steps :
          :   Hessian reset                    20     steps :
          :   time step scaling                 5     steps :
          :   maximium step len.        1.0000000     a0    :
          :   initial time step         0.2500000     fs    :
          :   maximum time step         1.2500000     fs    :
          :   power reset thr           0.0000000     au    :
          :   alpha parameter           0.1000000           :
          :   BFGS update                   false           :
          :   preconditioning               false           :
          ...................................................

........................................................................
.............................. CYCLE    1 ..............................
........................................................................

 iter      E             dE          RMSdq      gap      omega  full diag
   1  -3472.5971718 -0.347260E+04  0.747E-03   10.71       0.0  T
   2  -3472.5972163 -0.445069E-04  0.392E-03   10.71       1.0  T
   3  -3472.5972168 -0.422204E-06  0.182E-03   10.71       1.0  T
   4  -3472.5972169 -0.151157E-06  0.224E-04   10.71       7.8  T
   5  -3472.5972169 -0.371983E-07  0.142E-04   10.71      12.3  T
     SCC iter.                  ...        4 min, 53.044 sec
     gradient                   ...        3 min, 25.726 sec
 * total energy  : -3426.9451207 Eh     change    :  -0.4579935E-01 Eh
   gradient norm :     0.6011143 Eh/a0  converged?    E=F G=F D=F
   time step     :     0.2500000 fs     power     :   0.2363329E-05
   step length   :     0.0744481 a0     speed     :   0.7203250E-02

........................................................................
.............................. CYCLE    2 ..............................
........................................................................

 iter      E             dE          RMSdq      gap      omega  full diag
   1  -3472.9434214 -0.347294E+04  0.109E-02   10.77       0.0  T
   2  -3472.9435168 -0.953760E-04  0.573E-03   10.77       1.0  T
   3  -3472.9435178 -0.969316E-06  0.266E-03   10.77       1.0  T
   4  -3472.9435181 -0.365480E-06  0.343E-04   10.77       5.1  T
   5  -3472.9435182 -0.862869E-07  0.225E-04   10.77       7.8  T
     SCC iter.                  ...        4 min, 54.831 sec
     gradient                   ...        3 min, 27.199 sec
 * total energy  : -3427.0081233 Eh     change    :  -0.6300261E-01 Eh
   gradient norm :     0.5522239 Eh/a0  converged?    E=F G=F D=F
   time step     :     0.2500000 fs     power     :   0.3197625E-05
   step length   :     0.1095408 a0     speed     :   0.1059867E-01

........................................................................
.............................. CYCLE    3 ..............................
........................................................................

 iter      E             dE          RMSdq      gap      omega  full diag
   1  -3473.3918408 -0.347339E+04  0.140E-02   10.84       0.0  T
   2  -3473.3919959 -0.155153E-03  0.734E-03   10.84       1.0  T
   3  -3473.3919976 -0.166586E-05  0.339E-03   10.84       1.0  T
   4  -3473.3919982 -0.619372E-06  0.449E-04   10.84       3.9  T
   5  -3473.3919983 -0.142683E-06  0.294E-04   10.84       6.0  T
     SCC iter.                  ...        4 min, 54.650 sec
     gradient                   ...        3 min, 25.280 sec
 * total energy  : -3427.0817585 Eh     change    :  -0.7363522E-01 Eh
   gradient norm :     0.4912169 Eh/a0  converged?    E=F G=F D=F
   time step     :     0.2500000 fs     power     :   0.3665349E-05
   step length   :     0.1417775 a0     speed     :   0.1371774E-01

........................................................................
.............................. CYCLE    4 ..............................
........................................................................

 iter      E             dE          RMSdq      gap      omega  full diag
   1  -3473.9308107 -0.347393E+04  0.166E-02   10.92       0.0  T
   2  -3473.9310244 -0.213676E-03  0.869E-03   10.92       1.0  T
   3  -3473.9310268 -0.246436E-05  0.397E-03   10.92       1.0  T
   4  -3473.9310277 -0.882988E-06  0.541E-04   10.92       3.2  T
   5  -3473.9310279 -0.196881E-06  0.354E-04   10.92       5.0  T
     SCC iter.                  ...        4 min, 52.420 sec
     gradient                   ...        3 min, 25.158 sec
 * total energy  : -3427.1586484 Eh     change    :  -0.7688984E-01 Eh
   gradient norm :     0.4225971 Eh/a0  converged?    E=F G=F D=F
   time step     :     0.2500000 fs     power     :   0.3737079E-05
   step length   :     0.1702909 a0     speed     :   0.1647656E-01

........................................................................
.............................. CYCLE    5 ..............................
........................................................................

 iter      E             dE          RMSdq      gap      omega  full diag
   1  -3474.5463607 -0.347455E+04  0.185E-02   10.98       0.0  T
   2  -3474.5466208 -0.260044E-03  0.971E-03   10.98       1.0  T
   3  -3474.5466241 -0.331149E-05  0.438E-03   10.98       1.0  T
   4  -3474.5466252 -0.112094E-05  0.619E-04   10.98       2.8  T
   5  -3474.5466254 -0.238016E-06  0.401E-04   10.98       4.4  T
   6  -3474.5466256 -0.126598E-06  0.166E-04   10.98      10.6  T
     SCC iter.                  ...        6 min,  0.753 sec
     gradient                   ...        3 min, 25.130 sec
 * total energy  : -3427.2316614 Eh     change    :  -0.7301305E-01 Eh
   gradient norm :     0.3531991 Eh/a0  converged?    E=F G=F D=F
   time step     :     0.2500000 fs     power     :   0.3443330E-05
   step length   :     0.1943428 a0     speed     :   0.1880371E-01

........................................................................
.............................. CYCLE    6 ..............................
........................................................................

 iter      E             dE          RMSdq      gap      omega  full diag
   1  -3475.2959194 -0.347530E+04  0.220E-02   10.99       0.0  T
   2  -3475.2962669 -0.347498E-03  0.115E-02   10.99       1.0  T
   3  -3475.2962719 -0.503526E-05  0.505E-03   10.99       1.0  T
   4  -3475.2962734 -0.152312E-05  0.743E-04   10.98       2.4  T
   5  -3475.2962737 -0.302820E-06  0.469E-04   10.98       3.7  T
   6  -3475.2962739 -0.143028E-06  0.177E-04   10.98       9.9  T
     SCC iter.                  ...        5 min, 53.671 sec
     gradient                   ...        3 min, 25.768 sec
 * total energy  : -3427.3009788 Eh     change    :  -0.6931736E-01 Eh
   gradient norm :     0.2866094 Eh/a0  converged?    E=F G=F D=F
   time step     :     0.2750000 fs     power     :   0.2792647E-05
   step length   :     0.2367583 a0     speed     :   0.2082512E-01

........................................................................
.............................. CYCLE    7 ..............................
........................................................................

 iter      E             dE          RMSdq      gap      omega  full diag
   1  -3476.1738365 -0.347617E+04  0.251E-02   10.99       0.0  T
   2  -3476.1742436 -0.407026E-03  0.132E-02   10.99       1.0  T
   3  -3476.1742510 -0.739868E-05  0.548E-03   10.99       1.0  T
   4  -3476.1742529 -0.197469E-05  0.874E-04   10.98       2.0  T
   5  -3476.1742533 -0.342206E-06  0.541E-04   10.98       3.2  T
   6  -3476.1742534 -0.157477E-06  0.182E-04   10.98       9.6  T
     SCC iter.                  ...        6 min,  0.118 sec
     gradient                   ...        3 min, 25.455 sec
 * total energy  : -3427.3584474 Eh     change    :  -0.5746863E-01 Eh
   gradient norm :     0.2429919 Eh/a0  converged?    E=F G=F D=F
   time step     :     0.3025000 fs     power     :   0.1884399E-05
   step length   :     0.2788567 a0     speed     :   0.2229825E-01

........................................................................
.............................. CYCLE    8 ..............................
........................................................................

 iter      E             dE          RMSdq      gap      omega  full diag
   1  -3477.1433114 -0.347714E+04  0.275E-02   10.99       0.0  T
   2  -3477.1436997 -0.388272E-03  0.146E-02   10.98       1.0  T
   3  -3477.1437098 -0.100989E-04  0.539E-03   10.98       1.0  T
   4  -3477.1437120 -0.221301E-05  0.981E-04   10.98       1.8  T
   5  -3477.1437123 -0.305839E-06  0.587E-04   10.98       3.0  T
   6  -3477.1437124 -0.141107E-06  0.165E-04   10.98      10.6  T
     SCC iter.                  ...        5 min, 52.532 sec
     gradient                   ...        3 min, 24.199 sec
 * total energy  : -3427.3986314 Eh     change    :  -0.4018397E-01 Eh
   gradient norm :     0.2373844 Eh/a0  converged?    E=F G=F D=F
   time step     :     0.3327500 fs     power     :   0.9617745E-06
   step length   :     0.3146492 a0     speed     :   0.2287302E-01

........................................................................
.............................. CYCLE    9 ..............................
........................................................................

 iter      E             dE          RMSdq      gap      omega  full diag
   1  -3478.1274983 -0.347813E+04  0.294E-02   10.98       0.0  T
   2  -3478.1277736 -0.275246E-03  0.160E-02   10.98       1.0  T
   3  -3478.1277860 -0.124322E-04  0.451E-03   10.98       1.0  T
   4  -3478.1277880 -0.197703E-05  0.103E-03   10.98       1.7  T
   5  -3478.1277882 -0.189294E-06  0.583E-04   10.98       3.0  T
   6  -3478.1277883 -0.973646E-07  0.120E-04   10.98      14.6  T
     SCC iter.                  ...        5 min, 56.082 sec
     gradient                   ...        3 min, 26.867 sec
 * total energy  : -3427.4221123 Eh     change    :  -0.2348093E-01 Eh
   gradient norm :     0.2506529 Eh/a0  converged?    E=F G=F D=F
   time step     :     0.3660250 fs     power     :   0.2830325E-06
   step length   :     0.3383658 a0     speed     :   0.2236098E-01

........................................................................
.............................. CYCLE   10 ..............................
........................................................................

 iter      E             dE          RMSdq      gap      omega  full diag
   1  -3479.0317270 -0.347903E+04  0.318E-02   10.98       0.0  T
   2  -3479.0318567 -0.129730E-03  0.180E-02   10.97       1.0  T
   3  -3479.0318703 -0.136522E-04  0.287E-03   10.97       1.0  T
   4  -3479.0318718 -0.143540E-05  0.104E-03   10.97       1.7  T
   5  -3479.0318718 -0.598206E-07  0.513E-04   10.97       3.4  T
   6  -3479.0318719 -0.597606E-07  0.603E-05   10.97      29.1  T
     SCC iter.                  ...        5 min, 54.459 sec
     gradient                   ...        3 min, 27.191 sec
 * total energy  : -3427.4334082 Eh     change    :  -0.1129587E-01 Eh
   gradient norm :     0.2493086 Eh/a0  converged?    E=F G=F D=F
   time step     :     0.4026275 fs     power     :  -0.1241392E-06
   step length   :     0.3510357 a0     speed     :   0.2108934E-01

........................................................................
.............................. CYCLE   11 ..............................
........................................................................
 * reset velocities

 iter      E             dE          RMSdq      gap      omega  full diag
   1  -3479.0146460 -0.347901E+04  0.118E-03   10.97       0.0  T
   2  -3479.0146468 -0.778944E-06  0.675E-04   10.97       2.6  T
   3  -3479.0146468 -0.369801E-08  0.263E-04   10.97       6.7  T
     SCC iter.                  ...        2 min, 55.875 sec
     gradient                   ...        3 min, 26.039 sec
 * total energy  : -3427.4357362 Eh     change    :  -0.2328053E-02 Eh
   gradient norm :     0.2421993 Eh/a0  converged?    E=F G=F D=F
   time step     :     0.2013138 fs     power     :   0.1512313E-06
   step length   :     0.0094731 a0     speed     :   0.1138244E-02

........................................................................
.............................. CYCLE   12 ..............................
........................................................................

 iter      E             dE          RMSdq      gap      omega  full diag
   1  -3478.9806319 -0.347898E+04  0.232E-03   10.97       0.0  T
   2  -3478.9806349 -0.301668E-05  0.133E-03   10.97       1.3  T
   3  -3478.9806349 -0.195969E-07  0.519E-04   10.97       3.4  T
   4  -3478.9806349 -0.102150E-07  0.477E-05   10.97      36.8  T
     SCC iter.                  ...        4 min,  1.452 sec
     gradient                   ...        3 min, 24.735 sec
 * total energy  : -3427.4401295 Eh     change    :  -0.4393273E-02 Eh
   gradient norm :     0.2282729 Eh/a0  converged?    E=F G=F D=F
   time step     :     0.2013138 fs     power     :   0.2809817E-06
   step length   :     0.0186761 a0     speed     :   0.2244022E-02

........................................................................
.............................. CYCLE   13 ..............................
........................................................................

 iter      E             dE          RMSdq      gap      omega  full diag
   1  -3478.9306968 -0.347893E+04  0.339E-03   10.97       0.0  T
   2  -3478.9307033 -0.652700E-05  0.195E-03   10.97       1.0  T
   3  -3478.9307034 -0.474110E-07  0.766E-04   10.97       2.3  T
   4  -3478.9307034 -0.256623E-07  0.771E-05   10.97      22.7  T
     SCC iter.                  ...        3 min, 57.077 sec
     gradient                   ...        3 min, 24.487 sec
 * total energy  : -3427.4460940 Eh     change    :  -0.5964469E-02 Eh
   gradient norm :     0.2079689 Eh/a0  converged?    E=F G=F D=F
   time step     :     0.2013138 fs     power     :   0.3747578E-06
   step length   :     0.0273493 a0     speed     :   0.3286148E-02

........................................................................
.............................. CYCLE   14 ..............................
........................................................................

 iter      E             dE          RMSdq      gap      omega  full diag
   1  -3478.8661393 -0.347887E+04  0.436E-03   10.97       0.0  T
   2  -3478.8661501 -0.108546E-04  0.250E-03   10.97       1.0  T
   3  -3478.8661502 -0.819468E-07  0.988E-04   10.97       1.8  T
   4  -3478.8661502 -0.448708E-07  0.102E-04   10.97      17.1  T
     SCC iter.                  ...        3 min, 56.846 sec
     gradient                   ...        3 min, 25.616 sec
 * total energy  : -3427.4529631 Eh     change    :  -0.6869104E-02 Eh
   gradient norm :     0.1820199 Eh/a0  converged?    E=F G=F D=F
   time step     :     0.2013138 fs     power     :   0.4223490E-06
   step length   :     0.0352486 a0     speed     :   0.4235293E-02

........................................................................
.............................. CYCLE   15 ..............................
........................................................................

 iter      E             dE          RMSdq      gap      omega  full diag
   1  -3478.7886833 -0.347879E+04  0.520E-03   10.97       0.0  T
   2  -3478.7886989 -0.155249E-04  0.298E-03   10.97       1.0  T
   3  -3478.7886990 -0.119226E-06  0.118E-03   10.97       1.5  T
   4  -3478.7886990 -0.656551E-07  0.124E-04   10.97      14.1  T
   5  -3478.7886991 -0.172708E-07  0.861E-05   10.97      20.3  T
     SCC iter.                  ...        4 min, 52.928 sec
     gradient                   ...        3 min, 32.077 sec
 * total energy  : -3427.4599766 Eh     change    :  -0.7013546E-02 Eh
   gradient norm :     0.1514057 Eh/a0  converged?    E=F G=F D=F
   time step     :     0.2013138 fs     power     :   0.4190132E-06
   step length   :     0.0421546 a0     speed     :   0.5065084E-02

........................................................................
.............................. CYCLE   16 ..............................
........................................................................

 iter      E             dE          RMSdq      gap      omega  full diag
   1  -3478.7004923 -0.347870E+04  0.587E-03   10.97       0.0  T
   2  -3478.7005123 -0.199669E-04  0.337E-03   10.97       1.0  T
   3  -3478.7005124 -0.138895E-06  0.134E-03   10.97       1.3  T
   4  -3478.7005125 -0.741934E-07  0.131E-04   10.97      13.3  T
   5  -3478.7005125 -0.200471E-07  0.886E-05   10.97      19.8  T
     SCC iter.                  ...        5 min,  1.710 sec
     gradient                   ...        3 min, 24.267 sec
 * total energy  : -3427.4663728 Eh     change    :  -0.6396143E-02 Eh
   gradient norm :     0.1175618 Eh/a0  converged?    E=F G=F D=F
   time step     :     0.2013138 fs     power     :   0.3663312E-06
   step length   :     0.0478761 a0     speed     :   0.5752546E-02

........................................................................
.............................. CYCLE   17 ..............................
........................................................................

 iter      E             dE          RMSdq      gap      omega  full diag
   1  -3478.5936625 -0.347859E+04  0.703E-03   10.97       0.0  T
   2  -3478.5936915 -0.290456E-04  0.404E-03   10.97       1.0  T
   3  -3478.5936917 -0.196545E-06  0.162E-03   10.97       1.1  T
   4  -3478.5936918 -0.104379E-06  0.156E-04   10.97      11.2  T
   5  -3478.5936919 -0.285199E-07  0.104E-04   10.97      16.9  T
     SCC iter.                  ...        4 min, 57.208 sec
     gradient                   ...        3 min, 24.011 sec
 * total energy  : -3427.4719247 Eh     change    :  -0.5551900E-02 Eh
   gradient norm :     0.0791664 Eh/a0  converged?    E=F G=F D=F
   time step     :     0.2214451 fs     power     :   0.2601899E-06
   step length   :     0.0579593 a0     speed     :   0.6330993E-02

........................................................................
.............................. CYCLE   18 ..............................
........................................................................

 iter      E             dE          RMSdq      gap      omega  full diag
   1  -3478.4696544 -0.347847E+04  0.806E-03   10.97       0.0  T
   2  -3478.4696932 -0.387805E-04  0.463E-03   10.97       1.0  T
   3  -3478.4696935 -0.260145E-06  0.187E-03   10.97       1.0  T
   4  -3478.4696936 -0.136738E-06  0.179E-04   10.97       9.8  T
   5  -3478.4696936 -0.380828E-07  0.118E-04   10.97      14.9  T
     SCC iter.                  ...        4 min, 59.305 sec
     gradient                   ...        3 min, 24.607 sec
 * total energy  : -3427.4754821 Eh     change    :  -0.3557483E-02 Eh
   gradient norm :     0.0458741 Eh/a0  converged?    E=F G=F D=F
   time step     :     0.2435896 fs     power     :   0.1065973E-06
   step length   :     0.0676729 a0     speed     :   0.6720024E-02

........................................................................
.............................. CYCLE   19 ..............................
........................................................................

 iter      E             dE          RMSdq      gap      omega  full diag
   1  -3478.3380364 -0.347834E+04  0.844E-03   10.97       0.0  T
   2  -3478.3380797 -0.433544E-04  0.486E-03   10.97       1.0  T
   3  -3478.3380800 -0.293311E-06  0.198E-03   10.97       1.0  T
   4  -3478.3380802 -0.150260E-06  0.189E-04   10.97       9.3  T
   5  -3478.3380802 -0.430578E-07  0.121E-04   10.97      14.5  T
     SCC iter.                  ...        5 min,  7.444 sec
     gradient                   ...        3 min, 24.067 sec
 * total energy  : -3427.4761288 Eh     change    :  -0.6467020E-03 Eh
   gradient norm :     0.0533631 Eh/a0  converged?    E=F G=F D=F
   time step     :     0.2679486 fs     power     :  -0.5602883E-07
   step length   :     0.0741292 a0     speed     :   0.6691951E-02

........................................................................
.............................. CYCLE   20 ..............................
........................................................................
 * reset velocities

 iter      E             dE          RMSdq      gap      omega  full diag
   1  -3478.3392176 -0.347834E+04  0.122E-04   10.97       0.0  T
   2  -3478.3392176 -0.590762E-08  0.786E-05   10.97      22.3  T
   3  -3478.3392176 -0.333466E-08  0.340E-05   10.97      51.6  T
     SCC iter.                  ...        2 min, 56.448 sec
     gradient                   ...        3 min, 26.804 sec
 * total energy  : -3427.4761766 Eh     change    :  -0.4774392E-04 Eh
   gradient norm :     0.0529689 Eh/a0  converged?    E=F G=F D=T
   time step     :     0.1339743 fs     power     :   0.4711262E-08
   step length   :     0.0008980 a0     speed     :   0.1621389E-03
 * RMSD in coord.:     0.0348061 a0     energy gain  -0.5768552E+00 Eh

........................................................................
.............................. CYCLE   21 ..............................
........................................................................

 iter      E             dE          RMSdq      gap      omega  full diag
   1  -3478.3452294 -0.347835E+04  0.553E-04   10.97       0.0  T
   2  -3478.3452295 -0.906639E-07  0.316E-04   10.97       5.6  T
   3  -3478.3452295 -0.744876E-09  0.873E-05   10.97      20.1  T
     SCC iter.                  ...        2 min, 57.904 sec
     gradient                   ...        3 min, 26.461 sec
 * total energy  : -3427.4764251 Eh     change    :  -0.2485617E-03 Eh
   gradient norm :     0.0510675 Eh/a0  converged?    E=F G=F D=F
   time step     :     0.2500000 fs     power     :   0.1294691E-07
   step length   :     0.0047797 a0     speed     :   0.4624573E-03

........................................................................
.............................. CYCLE   22 ..............................
........................................................................

 iter      E             dE          RMSdq      gap      omega  full diag
   1  -3478.3548244 -0.347835E+04  0.900E-04   10.97       0.0  T
   2  -3478.3548247 -0.231884E-06  0.514E-04   10.97       3.4  T
   3  -3478.3548247 -0.394721E-08  0.140E-04   10.97      12.5  T
     SCC iter.                  ...        2 min, 59.803 sec
     gradient                   ...        3 min, 26.716 sec
 * total energy  : -3427.4768102 Eh     change    :  -0.3850224E-03 Eh
   gradient norm :     0.0481728 Eh/a0  converged?    E=F G=F D=F
   time step     :     0.2500000 fs     power     :   0.1980553E-07
   step length   :     0.0077709 a0     speed     :   0.7518737E-03

........................................................................
.............................. CYCLE   23 ..............................
........................................................................

 iter      E             dE          RMSdq      gap      omega  full diag
   1  -3478.3674977 -0.347837E+04  0.121E-03   10.97       0.0  T
   2  -3478.3674981 -0.404777E-06  0.691E-04   10.97       2.5  T
   3  -3478.3674981 -0.879481E-08  0.186E-04   10.97       9.4  T
     SCC iter.                  ...        2 min, 53.206 sec
     gradient                   ...        3 min, 25.614 sec
 * total energy  : -3427.4772988 Eh     change    :  -0.4886046E-03 Eh
   gradient norm :     0.0446369 Eh/a0  converged?    E=F G=F D=F
   time step     :     0.2500000 fs     power     :   0.2482345E-07
   step length   :     0.0105861 a0     speed     :   0.1024262E-02

........................................................................
.............................. CYCLE   24 ..............................
........................................................................

 iter      E             dE          RMSdq      gap      omega  full diag
   1  -3478.3825405 -0.347838E+04  0.147E-03   10.97       0.0  T
   2  -3478.3825411 -0.568543E-06  0.839E-04   10.97       2.1  T
   3  -3478.3825411 -0.145096E-07  0.219E-04   10.97       8.0  T
     SCC iter.                  ...        2 min, 56.620 sec
     gradient                   ...        3 min, 27.156 sec
 * total energy  : -3427.4778543 Eh     change    :  -0.5555416E-03 Eh
   gradient norm :     0.0409638 Eh/a0  converged?    E=F G=F D=F
   time step     :     0.2500000 fs     power     :   0.2789476E-07
   step length   :     0.0131745 a0     speed     :   0.1274705E-02

........................................................................
.............................. CYCLE   25 ..............................
........................................................................

 iter      E             dE          RMSdq      gap      omega  full diag
   1  -3478.3990411 -0.347840E+04  0.166E-03   10.97       0.0  T
   2  -3478.3990417 -0.679251E-06  0.954E-04   10.97       1.8  T
   3  -3478.3990418 -0.201671E-07  0.239E-04   10.97       7.3  T
     SCC iter.                  ...        2 min, 59.922 sec
     gradient                   ...        3 min, 26.480 sec
 * total energy  : -3427.4784435 Eh     change    :  -0.5891396E-03 Eh
   gradient norm :     0.0377602 Eh/a0  converged?    E=F G=F D=F
   time step     :     0.2500000 fs     power     :   0.2931601E-07
   step length   :     0.0155006 a0     speed     :   0.1499770E-02

........................................................................
.............................. CYCLE   26 ..............................
........................................................................

 iter      E             dE          RMSdq      gap      omega  full diag
   1  -3478.4177151 -0.347842E+04  0.199E-03   10.97       0.0  T
   2  -3478.4177160 -0.858670E-06  0.114E-03   10.97       1.5  T
   3  -3478.4177160 -0.293858E-07  0.265E-04   10.97       6.6  T
   4  -3478.4177160 -0.114042E-07  0.616E-05   10.97      28.4  T
     SCC iter.                  ...        3 min, 53.334 sec
     gradient                   ...        3 min, 26.451 sec
 * total energy  : -3427.4791079 Eh     change    :  -0.6644457E-03 Eh
   gradient norm :     0.0354274 Eh/a0  converged?    E=F G=F D=F
   time step     :     0.2750000 fs     power     :   0.2971459E-07
   step length   :     0.0195350 a0     speed     :   0.1718287E-02

........................................................................
.............................. CYCLE   27 ..............................
........................................................................

 iter      E             dE          RMSdq      gap      omega  full diag
   1  -3478.4371565 -0.347844E+04  0.226E-03   10.97       0.0  T
   2  -3478.4371574 -0.920298E-06  0.130E-03   10.97       1.3  T
   3  -3478.4371574 -0.361383E-07  0.270E-04   10.97       6.5  T
   4  -3478.4371574 -0.144632E-07  0.679E-05   10.97      25.8  T
     SCC iter.                  ...        3 min, 49.201 sec
     gradient                   ...        3 min, 26.199 sec
 * total energy  : -3427.4798456 Eh     change    :  -0.7377335E-03 Eh
   gradient norm :     0.0346378 Eh/a0  converged?    E=F G=F D=F
   time step     :     0.3025000 fs     power     :   0.2989831E-07
   step length   :     0.0240744 a0     speed     :   0.1925061E-02

........................................................................
.............................. CYCLE   28 ..............................
........................................................................

 iter      E             dE          RMSdq      gap      omega  full diag
   1  -3478.4550909 -0.347846E+04  0.246E-03   10.97       0.0  T
   2  -3478.4550917 -0.758053E-06  0.141E-03   10.97       1.2  T
   3  -3478.4550917 -0.439459E-07  0.237E-04   10.97       7.4  T
   4  -3478.4550917 -0.164641E-07  0.735E-05   10.97      23.8  T
     SCC iter.                  ...        3 min, 55.722 sec
     gradient                   ...        3 min, 25.377 sec
 * total energy  : -3427.4806816 Eh     change    :  -0.8360134E-03 Eh
   gradient norm :     0.0352784 Eh/a0  converged?    E=F G=F D=F
   time step     :     0.3327500 fs     power     :   0.3113419E-07
   step length   :     0.0291658 a0     speed     :   0.2120168E-02

........................................................................
.............................. CYCLE   29 ..............................
........................................................................

 iter      E             dE          RMSdq      gap      omega  full diag
   1  -3478.4686853 -0.347847E+04  0.257E-03   10.97       0.0  T
   2  -3478.4686857 -0.436838E-06  0.149E-03   10.97       1.2  T
   3  -3478.4686858 -0.487571E-07  0.177E-04   10.97       9.9  T
   4  -3478.4686858 -0.178161E-07  0.756E-05   10.97      23.2  T
     SCC iter.                  ...        3 min, 55.698 sec
     gradient                   ...        3 min, 26.929 sec
 * total energy  : -3427.4816762 Eh     change    :  -0.9945324E-03 Eh
   gradient norm :     0.0361228 Eh/a0  converged?    E=F G=F D=F
   time step     :     0.3660250 fs     power     :   0.3433317E-07
   step length   :     0.0350402 a0     speed     :   0.2315638E-02

........................................................................
.............................. CYCLE   30 ..............................
........................................................................

 iter      E             dE          RMSdq      gap      omega  full diag
   1  -3478.4751744 -0.347848E+04  0.269E-03   10.97       0.0  T
   2  -3478.4751746 -0.229490E-06  0.157E-03   10.97       1.1  T
   3  -3478.4751746 -0.488931E-07  0.138E-04   10.97      12.7  T
   4  -3478.4751747 -0.200143E-07  0.741E-05   10.97      23.6  T
     SCC iter.                  ...        3 min, 55.920 sec
     gradient                   ...        3 min, 25.532 sec
 * total energy  : -3427.4829056 Eh     change    :  -0.1229446E-02 Eh
   gradient norm :     0.0355073 Eh/a0  converged?    E=F G=F D=F
   time step     :     0.4026275 fs     power     :   0.3905392E-07
   step length   :     0.0421633 a0     speed     :   0.2533064E-02

........................................................................
.............................. CYCLE   31 ..............................
........................................................................

 iter      E             dE          RMSdq      gap      omega  full diag
   1  -3478.4727458 -0.347847E+04  0.294E-03   10.97       0.0  T
   2  -3478.4727463 -0.536096E-06  0.174E-03   10.97       1.0  T
   3  -3478.4727464 -0.468413E-07  0.165E-04   10.97      10.6  T
   4  -3478.4727464 -0.228929E-07  0.678E-05   10.97      25.8  T
     SCC iter.                  ...        3 min, 58.698 sec
     gradient                   ...        3 min, 24.693 sec
 * total energy  : -3427.4844090 Eh     change    :  -0.1503386E-02 Eh
   gradient norm :     0.0323637 Eh/a0  converged?    E=F G=F D=F
   time step     :     0.4428903 fs     power     :   0.4310934E-07
   step length   :     0.0510684 a0     speed     :   0.2789146E-02

........................................................................
.............................. CYCLE   32 ..............................
........................................................................

 iter      E             dE          RMSdq      gap      omega  full diag
   1  -3478.4620515 -0.347846E+04  0.341E-03   10.97       0.0  T
   2  -3478.4620530 -0.153059E-05  0.203E-03   10.97       1.0  T
   3  -3478.4620530 -0.534665E-07  0.281E-04   10.97       6.2  T
   4  -3478.4620531 -0.256182E-07  0.689E-05   10.97      25.4  T
     SCC iter.                  ...        3 min, 57.158 sec
     gradient                   ...        3 min, 25.448 sec
 * total energy  : -3427.4861289 Eh     change    :  -0.1719848E-02 Eh
   gradient norm :     0.0275159 Eh/a0  converged?    E=F G=F D=F
   time step     :     0.4871793 fs     power     :   0.4362419E-07
   step length   :     0.0620655 a0     speed     :   0.3081600E-02

........................................................................
.............................. CYCLE   33 ..............................
........................................................................

 iter      E             dE          RMSdq      gap      omega  full diag
   1  -3478.4486561 -0.347845E+04  0.395E-03   10.97       0.0  T
   2  -3478.4486585 -0.247958E-05  0.237E-03   10.97       1.0  T
   3  -3478.4486586 -0.645250E-07  0.367E-04   10.97       4.8  T
   4  -3478.4486586 -0.286245E-07  0.725E-05   10.97      24.2  T
     SCC iter.                  ...        3 min, 56.820 sec
     gradient                   ...        3 min, 25.645 sec
 * total energy  : -3427.4879259 Eh     change    :  -0.1797079E-02 Eh
   gradient norm :     0.0247672 Eh/a0  converged?    E=F G=F D=F
   time step     :     0.5358972 fs     power     :   0.4004582E-07
   step length   :     0.0749773 a0     speed     :   0.3384260E-02

........................................................................
.............................. CYCLE   34 ..............................
........................................................................

 iter      E             dE          RMSdq      gap      omega  full diag
   1  -3478.4452092 -0.347845E+04  0.437E-03   10.97       0.0  T
   2  -3478.4452110 -0.184759E-05  0.262E-03   10.97       1.0  T
   3  -3478.4452111 -0.777591E-07  0.266E-04   10.97       6.6  T
   4  -3478.4452112 -0.290547E-07  0.752E-05   10.97      23.3  T
     SCC iter.                  ...        4 min,  9.134 sec
     gradient                   ...        3 min, 26.439 sec
 * total energy  : -3427.4897434 Eh     change    :  -0.1817505E-02 Eh
   gradient norm :     0.0261575 Eh/a0  converged?    E=F G=F D=F
   time step     :     0.5894869 fs     power     :   0.3672586E-07
   step length   :     0.0888551 a0     speed     :   0.3646057E-02

........................................................................
.............................. CYCLE   35 ..............................
........................................................................

 iter      E             dE          RMSdq      gap      omega  full diag
   1  -3478.4658816 -0.347847E+04  0.487E-03   10.97       0.0  T
   2  -3478.4658820 -0.400821E-06  0.288E-03   10.97       1.0  T
   3  -3478.4658821 -0.105980E-06  0.149E-04   10.97      11.8  T
   4  -3478.4658821 -0.199334E-07  0.824E-05   10.97      21.3  T
     SCC iter.                  ...        3 min, 53.922 sec
     gradient                   ...        3 min, 25.177 sec
 * total energy  : -3427.4917193 Eh     change    :  -0.1975875E-02 Eh
   gradient norm :     0.0260734 Eh/a0  converged?    E=F G=F D=F
   time step     :     0.6484356 fs     power     :   0.3718649E-07
   step length   :     0.1032317 a0     speed     :   0.3850890E-02

........................................................................
.............................. CYCLE   36 ..............................
........................................................................

 iter      E             dE          RMSdq      gap      omega  full diag
   1  -3478.5169102 -0.347852E+04  0.585E-03   10.97       0.0  T
   2  -3478.5169115 -0.133273E-05  0.338E-03   10.97       1.0  T
   3  -3478.5169117 -0.147188E-06  0.244E-04   10.97       7.2  T
   4  -3478.5169117 -0.187865E-07  0.975E-05   10.97      18.0  T
     SCC iter.                  ...        3 min, 57.627 sec
     gradient                   ...        3 min, 24.270 sec
 * total energy  : -3427.4939109 Eh     change    :  -0.2191605E-02 Eh
   gradient norm :     0.0216143 Eh/a0  converged?    E=F G=F D=F
   time step     :     0.7132792 fs     power     :   0.3668110E-07
   step length   :     0.1197922 a0     speed     :   0.4062414E-02

........................................................................
.............................. CYCLE   37 ..............................
........................................................................

 iter      E             dE          RMSdq      gap      omega  full diag
   1  -3478.5868328 -0.347859E+04  0.670E-03   10.97       0.0  T
   2  -3478.5868363 -0.346539E-05  0.384E-03   10.97       1.0  T
   3  -3478.5868365 -0.166331E-06  0.431E-04   10.97       4.1  T
   4  -3478.5868365 -0.302039E-07  0.107E-04   10.97      16.4  T
     SCC iter.                  ...        3 min, 56.596 sec
     gradient                   ...        3 min, 24.045 sec
 * total energy  : -3427.4960906 Eh     change    :  -0.2179637E-02 Eh
   gradient norm :     0.0212329 Eh/a0  converged?    E=F G=F D=F
   time step     :     0.7846071 fs     power     :   0.3142191E-07
   step length   :     0.1393489 a0     speed     :   0.4296023E-02

........................................................................
.............................. CYCLE   38 ..............................
........................................................................

 iter      E             dE          RMSdq      gap      omega  full diag
   1  -3478.6390789 -0.347864E+04  0.630E-03   10.97       0.0  T
   2  -3478.6390799 -0.102987E-05  0.365E-03   10.97       1.0  T
   3  -3478.6390801 -0.142333E-06  0.210E-04   10.97       8.3  T
   4  -3478.6390801 -0.164318E-07  0.871E-05   10.97      20.1  T
     SCC iter.                  ...        4 min,  5.722 sec
     gradient                   ...        3 min, 25.417 sec
 * total energy  : -3427.4983216 Eh     change    :  -0.2231043E-02 Eh
   gradient norm :     0.0239348 Eh/a0  converged?    E=F G=F D=F
   time step     :     0.8630678 fs     power     :   0.3067440E-07
   step length   :     0.1590850 a0     speed     :   0.4458608E-02

........................................................................
.............................. CYCLE   39 ..............................
........................................................................

 iter      E             dE          RMSdq      gap      omega  full diag
   1  -3478.6479757 -0.347865E+04  0.584E-03   10.97       0.0  T
   2  -3478.6479777 -0.194746E-05  0.349E-03   10.97       1.0  T
   3  -3478.6479778 -0.164710E-06  0.234E-04   10.97       7.5  T
   4  -3478.6479779 -0.231262E-07  0.105E-04   10.97      16.7  T
     SCC iter.                  ...        4 min,  1.784 sec
     gradient                   ...        3 min, 25.228 sec
 * total energy  : -3427.5009056 Eh     change    :  -0.2583970E-02 Eh
   gradient norm :     0.0203055 Eh/a0  converged?    E=F G=F D=F
   time step     :     0.9493746 fs     power     :   0.3234678E-07
   step length   :     0.1808391 a0     speed     :   0.4607548E-02

........................................................................
.............................. CYCLE   40 ..............................
........................................................................

 iter      E             dE          RMSdq      gap      omega  full diag
   1  -3478.6302477 -0.347863E+04  0.594E-03   10.98       0.0  T
   2  -3478.6302529 -0.524274E-05  0.357E-03   10.98       1.0  T
   3  -3478.6302531 -0.242795E-06  0.501E-04   10.98       3.5  T
   4  -3478.6302532 -0.524451E-07  0.150E-04   10.98      11.7  T
     SCC iter.                  ...        4 min,  1.298 sec
     gradient                   ...        3 min, 27.065 sec
 * total energy  : -3427.5036379 Eh     change    :  -0.2732319E-02 Eh
   gradient norm :     0.0227427 Eh/a0  converged?    E=F G=F D=F
   time step     :     1.0443120 fs     power     :   0.3007201E-07
   step length   :     0.2077293 a0     speed     :   0.4811524E-02

........................................................................
.............................. CYCLE   41 ..............................
........................................................................

 iter      E             dE          RMSdq      gap      omega  full diag
   1  -3478.6442589 -0.347864E+04  0.655E-03   10.98       0.0  T
   2  -3478.6442597 -0.818009E-06  0.384E-03   10.98       1.0  T
   3  -3478.6442600 -0.234029E-06  0.227E-04   10.98       7.7  T
   4  -3478.6442600 -0.309992E-07  0.134E-04   10.98      13.1  T
     SCC iter.                  ...        3 min, 59.418 sec
     gradient                   ...        3 min, 25.000 sec
 * total energy  : -3427.5068590 Eh     change    :  -0.3221127E-02 Eh
   gradient norm :     0.0208628 Eh/a0  converged?    E=F G=F D=F
   time step     :     1.1487432 fs     power     :   0.3437439E-07
   step length   :     0.2364367 a0     speed     :   0.4978598E-02

........................................................................
.............................. CYCLE   42 ..............................
........................................................................

 iter      E             dE          RMSdq      gap      omega  full diag
   1  -3478.6896685 -0.347869E+04  0.828E-03   10.99       0.0  T
   2  -3478.6896727 -0.421913E-05  0.480E-03   10.99       1.0  T
   3  -3478.6896729 -0.226120E-06  0.427E-04   10.99       4.1  T
   4  -3478.6896730 -0.390896E-07  0.118E-04   10.99      14.8  T
     SCC iter.                  ...        4 min,  1.003 sec
     gradient                   ...        3 min, 26.354 sec
 * total energy  : -3427.5104183 Eh     change    :  -0.3559250E-02 Eh
   gradient norm :     0.0212344 Eh/a0  converged?    E=F G=F D=F
   time step     :     1.2500000 fs     power     :   0.3250847E-07
   step length   :     0.2702841 a0     speed     :   0.5230288E-02
 * RMSD in coord.:     0.0307346 a0     energy gain  -0.3424169E-01 Eh

........................................................................
.............................. CYCLE   43 ..............................
........................................................................

 iter      E             dE          RMSdq      gap      omega  full diag
   1  -3478.6919458 -0.347869E+04  0.131E-03   10.99       0.0  T
   2  -3478.6919458 -0.311497E-07  0.769E-04   10.99       2.3  T
   3  -3478.6919458 -0.875025E-08  0.457E-05   10.99      38.4  T
     SCC iter.                  ...        3 min,  0.779 sec
     gradient                   ...        3 min, 30.499 sec
 * total energy  : -3427.5111003 Eh     change    :  -0.6820345E-03 Eh
   gradient norm :     0.0213039 Eh/a0  converged?    E=F G=F D=F
   time step     :     0.2500000 fs     power     :   0.3565740E-07
   step length   :     0.0525015 a0     speed     :   0.5079801E-02

........................................................................
.............................. CYCLE   44 ..............................
........................................................................

 iter      E             dE          RMSdq      gap      omega  full diag
   1  -3478.6881027 -0.347869E+04  0.124E-03   10.99       0.0  T
   2  -3478.6881029 -0.149818E-06  0.728E-04   10.99       2.4  T
   3  -3478.6881029 -0.954196E-08  0.801E-05   10.99      21.9  T
     SCC iter.                  ...        3 min,  3.898 sec
     gradient                   ...        3 min, 25.136 sec
 * total energy  : -3427.5118299 Eh     change    :  -0.7296364E-03 Eh
   gradient norm :     0.0197532 Eh/a0  converged?    E=F G=F D=F
   time step     :     0.2500000 fs     power     :   0.3801357E-07
   step length   :     0.0514177 a0     speed     :   0.4974941E-02

........................................................................
.............................. CYCLE   45 ..............................
........................................................................

 iter      E             dE          RMSdq      gap      omega  full diag
   1  -3478.6798461 -0.347868E+04  0.137E-03   10.99       0.0  T
   2  -3478.6798465 -0.388275E-06  0.802E-04   10.99       2.2  T
   3  -3478.6798465 -0.122550E-07  0.158E-04   10.99      11.1  T
     SCC iter.                  ...        3 min,  0.362 sec
     gradient                   ...        3 min, 25.709 sec
 * total energy  : -3427.5125759 Eh     change    :  -0.7459228E-03 Eh
   gradient norm :     0.0175892 Eh/a0  converged?    E=F G=F D=F
   time step     :     0.2500000 fs     power     :   0.3835972E-07
   step length   :     0.0509141 a0     speed     :   0.4926215E-02

........................................................................
.............................. CYCLE   46 ..............................
........................................................................

 iter      E             dE          RMSdq      gap      omega  full diag
   1  -3478.6699651 -0.347867E+04  0.150E-03   10.99       0.0  T
   2  -3478.6699656 -0.523768E-06  0.880E-04   10.99       2.0  T
   3  -3478.6699656 -0.143318E-07  0.190E-04   10.99       9.2  T
     SCC iter.                  ...        2 min, 59.874 sec
     gradient                   ...        3 min, 24.604 sec
 * total energy  : -3427.5133045 Eh     change    :  -0.7286558E-03 Eh
   gradient norm :     0.0163616 Eh/a0  converged?    E=F G=F D=F
   time step     :     0.2500000 fs     power     :   0.3709071E-07
   step length   :     0.0508919 a0     speed     :   0.4924063E-02

........................................................................
.............................. CYCLE   47 ..............................
........................................................................

 iter      E             dE          RMSdq      gap      omega  full diag
   1  -3478.6620055 -0.347866E+04  0.152E-03   10.99       0.0  T
   2  -3478.6620059 -0.409223E-06  0.891E-04   10.99       2.0  T
   3  -3478.6620059 -0.136888E-07  0.157E-04   10.99      11.1  T
     SCC iter.                  ...        3 min,  6.508 sec
     gradient                   ...        3 min, 24.801 sec
 * total energy  : -3427.5140062 Eh     change    :  -0.7016585E-03 Eh
   gradient norm :     0.0166112 Eh/a0  converged?    E=F G=F D=F
   time step     :     0.2500000 fs     power     :   0.3583653E-07
   step length   :     0.0509844 a0     speed     :   0.4933018E-02

........................................................................
.............................. CYCLE   48 ..............................
........................................................................

 iter      E             dE          RMSdq      gap      omega  full diag
   1  -3478.6585423 -0.347866E+04  0.161E-03   10.99       0.0  T
   2  -3478.6585425 -0.205061E-06  0.943E-04   10.99       1.9  T
   3  -3478.6585425 -0.132095E-07  0.908E-05   10.99      19.3  T
     SCC iter.                  ...        2 min, 59.492 sec
     gradient                   ...        3 min, 25.368 sec
 * total energy  : -3427.5147656 Eh     change    :  -0.7594537E-03 Eh
   gradient norm :     0.0172021 Eh/a0  converged?    E=F G=F D=F
   time step     :     0.2750000 fs     power     :   0.3560160E-07
   step length   :     0.0560345 a0     speed     :   0.4928763E-02

........................................................................
.............................. CYCLE   49 ..............................
........................................................................

 iter      E             dE          RMSdq      gap      omega  full diag
   1  -3478.6621286 -0.347866E+04  0.175E-03   10.99       0.0  T
   2  -3478.6621286 -0.571258E-07  0.103E-03   10.99       1.7  T
   3  -3478.6621286 -0.136229E-07  0.535E-05   10.99      32.8  T
   4  -3478.6621286 -0.338741E-08  0.263E-05   10.99      66.5  T
     SCC iter.                  ...        4 min,  1.046 sec
     gradient                   ...        3 min, 24.751 sec
 * total energy  : -3427.5156072 Eh     change    :  -0.8415818E-03 Eh
   gradient norm :     0.0166995 Eh/a0  converged?    E=F G=F D=F
   time step     :     0.3025000 fs     power     :   0.3603310E-07
   step length   :     0.0615298 a0     speed     :   0.4920118E-02

........................................................................
.............................. CYCLE   50 ..............................
........................................................................

 iter      E             dE          RMSdq      gap      omega  full diag
   1  -3478.6736121 -0.347867E+04  0.203E-03   10.99       0.0  T
   2  -3478.6736123 -0.187885E-06  0.118E-03   10.99       1.5  T
   3  -3478.6736123 -0.170903E-07  0.878E-05   10.99      19.9  T
   4  -3478.6736123 -0.442969E-08  0.321E-05   10.99      54.5  T
     SCC iter.                  ...        3 min, 59.446 sec
     gradient                   ...        3 min, 24.422 sec
 * total energy  : -3427.5165316 Eh     change    :  -0.9243816E-03 Eh
   gradient norm :     0.0148648 Eh/a0  converged?    E=F G=F D=F
   time step     :     0.3327500 fs     power     :   0.3564600E-07
   step length   :     0.0679245 a0     speed     :   0.4937686E-02

........................................................................
.............................. CYCLE   51 ..............................
........................................................................

 iter      E             dE          RMSdq      gap      omega  full diag
   1  -3478.6909647 -0.347869E+04  0.232E-03   10.99       0.0  T
   2  -3478.6909652 -0.489880E-06  0.134E-03   10.99       1.3  T
   3  -3478.6909652 -0.232199E-07  0.158E-04   10.99      11.1  T
   4  -3478.6909652 -0.591808E-08  0.412E-05   10.99      42.6  T
     SCC iter.                  ...        3 min, 56.116 sec
     gradient                   ...        3 min, 24.107 sec
 * total energy  : -3427.5175070 Eh     change    :  -0.9754243E-03 Eh
   gradient norm :     0.0135231 Eh/a0  converged?    E=F G=F D=F
   time step     :     0.3660250 fs     power     :   0.3362164E-07
   step length   :     0.0756573 a0     speed     :   0.4999828E-02

........................................................................
.............................. CYCLE   52 ..............................
........................................................................

 iter      E             dE          RMSdq      gap      omega  full diag
   1  -3478.7075139 -0.347871E+04  0.237E-03   10.99       0.0  T
   2  -3478.7075143 -0.438568E-06  0.138E-03   10.99       1.3  T
   3  -3478.7075144 -0.255322E-07  0.144E-04   10.99      12.2  T
   4  -3478.7075144 -0.600812E-08  0.420E-05   10.99      41.8  T
     SCC iter.                  ...        3 min, 59.769 sec
     gradient                   ...        3 min, 25.858 sec
 * total energy  : -3427.5185155 Eh     change    :  -0.1008498E-02 Eh
   gradient norm :     0.0143059 Eh/a0  converged?    E=F G=F D=F
   time step     :     0.4026275 fs     power     :   0.3159680E-07
   step length   :     0.0844450 a0     speed     :   0.5073243E-02

........................................................................
.............................. CYCLE   53 ..............................
........................................................................

 iter      E             dE          RMSdq      gap      omega  full diag
   1  -3478.7151229 -0.347872E+04  0.222E-03   10.99       0.0  T
   2  -3478.7151230 -0.105772E-06  0.130E-03   10.99       1.3  T
   3  -3478.7151231 -0.242335E-07  0.713E-05   10.99      24.6  T
   4  -3478.7151231 -0.461159E-08  0.365E-05   10.99      48.0  T
     SCC iter.                  ...        3 min, 57.944 sec
     gradient                   ...        3 min, 23.948 sec
 * total energy  : -3427.5195961 Eh     change    :  -0.1080616E-02 Eh
   gradient norm :     0.0146965 Eh/a0  converged?    E=F G=F D=F
   time step     :     0.4428903 fs     power     :   0.3124445E-07
   step length   :     0.0934150 a0     speed     :   0.5101944E-02

........................................................................
.............................. CYCLE   54 ..............................
........................................................................

 iter      E             dE          RMSdq      gap      omega  full diag
   1  -3478.7100006 -0.347871E+04  0.223E-03   11.00       0.0  T
   2  -3478.7100009 -0.341645E-06  0.132E-03   11.00       1.3  T
   3  -3478.7100010 -0.296495E-07  0.108E-04   11.00      16.2  T
   4  -3478.7100010 -0.539330E-08  0.430E-05   11.00      40.7  T
     SCC iter.                  ...        3 min, 55.270 sec
     gradient                   ...        3 min, 24.105 sec
 * total energy  : -3427.5207787 Eh     change    :  -0.1182546E-02 Eh
   gradient norm :     0.0131505 Eh/a0  converged?    E=F G=F D=F
   time step     :     0.4871793 fs     power     :   0.3093329E-07
   step length   :     0.1032588 a0     speed     :   0.5126881E-02

........................................................................
.............................. CYCLE   55 ..............................
........................................................................

 iter      E             dE          RMSdq      gap      omega  full diag
   1  -3478.6961420 -0.347870E+04  0.238E-03   11.00       0.0  T
   2  -3478.6961430 -0.942578E-06  0.140E-03   11.00       1.2  T
   3  -3478.6961430 -0.421187E-07  0.229E-04   11.00       7.7  T
   4  -3478.6961430 -0.885029E-08  0.593E-05   11.00      29.6  T
     SCC iter.                  ...        3 min, 59.014 sec
     gradient                   ...        3 min, 24.531 sec
 * total energy  : -3427.5220291 Eh     change    :  -0.1250388E-02 Eh
   gradient norm :     0.0128610 Eh/a0  converged?    E=F G=F D=F
   time step     :     0.5358972 fs     power     :   0.2926138E-07
   step length   :     0.1150745 a0     speed     :   0.5194130E-02

........................................................................
.............................. CYCLE   56 ..............................
........................................................................

 iter      E             dE          RMSdq      gap      omega  full diag
   1  -3478.6880527 -0.347869E+04  0.229E-03   11.00       0.0  T
   2  -3478.6880532 -0.483992E-06  0.135E-03   11.00       1.3  T
   3  -3478.6880532 -0.443092E-07  0.146E-04   11.00      12.0  T
   4  -3478.6880532 -0.779482E-08  0.606E-05   11.00      28.9  T
     SCC iter.                  ...        3 min, 56.147 sec
     gradient                   ...        3 min, 25.033 sec
 * total energy  : -3427.5233612 Eh     change    :  -0.1332104E-02 Eh
   gradient norm :     0.0139760 Eh/a0  converged?    E=F G=F D=F
   time step     :     0.5894869 fs     power     :   0.2881220E-07
   step length   :     0.1279313 a0     speed     :   0.5249499E-02

........................................................................
.............................. CYCLE   57 ..............................
........................................................................

 iter      E             dE          RMSdq      gap      omega  full diag
   1  -3478.6970404 -0.347870E+04  0.260E-03   11.00       0.0  T
   2  -3478.6970406 -0.217474E-06  0.152E-03   11.00       1.2  T
   3  -3478.6970406 -0.359519E-07  0.116E-04   11.00      15.1  T
   4  -3478.6970406 -0.863429E-08  0.538E-05   11.00      32.5  T
     SCC iter.                  ...        3 min, 54.921 sec
     gradient                   ...        3 min, 24.711 sec
 * total energy  : -3427.5248432 Eh     change    :  -0.1482012E-02 Eh
   gradient norm :     0.0125966 Eh/a0  converged?    E=F G=F D=F
   time step     :     0.6484356 fs     power     :   0.2922566E-07
   step length   :     0.1415980 a0     speed     :   0.5282083E-02

........................................................................
.............................. CYCLE   58 ..............................
........................................................................

 iter      E             dE          RMSdq      gap      omega  full diag
   1  -3478.7201445 -0.347872E+04  0.318E-03   11.00       0.0  T
   2  -3478.7201452 -0.758866E-06  0.184E-03   11.00       1.0  T
   3  -3478.7201453 -0.348700E-07  0.210E-04   11.00       8.4  T
   4  -3478.7201453 -0.103682E-07  0.520E-05   11.00      33.7  T
     SCC iter.                  ...        3 min, 54.585 sec
     gradient                   ...        3 min, 25.468 sec
 * total energy  : -3427.5264393 Eh     change    :  -0.1596156E-02 Eh
   gradient norm :     0.0126430 Eh/a0  converged?    E=F G=F D=F
   time step     :     0.7132792 fs     power     :   0.2810223E-07
   step length   :     0.1582200 a0     speed     :   0.5365584E-02

........................................................................
.............................. CYCLE   59 ..............................
........................................................................

 iter      E             dE          RMSdq      gap      omega  full diag
   1  -3478.7360426 -0.347874E+04  0.298E-03   11.01       0.0  T
   2  -3478.7360428 -0.173902E-06  0.175E-03   11.01       1.0  T
   3  -3478.7360428 -0.419827E-07  0.108E-04   11.01      16.3  T
   4  -3478.7360428 -0.746786E-08  0.592E-05   11.01      29.6  T
     SCC iter.                  ...        3 min, 57.303 sec
     gradient                   ...        3 min, 24.654 sec
 * total energy  : -3427.5281822 Eh     change    :  -0.1742827E-02 Eh
   gradient norm :     0.0128583 Eh/a0  converged?    E=F G=F D=F
   time step     :     0.7846071 fs     power     :   0.2847265E-07
   step length   :     0.1763761 a0     speed     :   0.5437542E-02

........................................................................
.............................. CYCLE   60 ..............................
........................................................................

 iter      E             dE          RMSdq      gap      omega  full diag
   1  -3478.7366139 -0.347874E+04  0.310E-03   11.01       0.0  T
   2  -3478.7366151 -0.122284E-05  0.188E-03   11.01       1.0  T
   3  -3478.7366152 -0.617579E-07  0.232E-04   11.01       7.6  T
   4  -3478.7366152 -0.148211E-07  0.782E-05   11.01      22.4  T
     SCC iter.                  ...        4 min, 12.265 sec
     gradient                   ...        3 min, 25.478 sec
 * total energy  : -3427.5301031 Eh     change    :  -0.1920922E-02 Eh
   gradient norm :     0.0113684 Eh/a0  converged?    E=F G=F D=F
   time step     :     0.8630678 fs     power     :   0.2794189E-07
   step length   :     0.1970312 a0     speed     :   0.5522111E-02

........................................................................
.............................. CYCLE   61 ..............................
........................................................................

 iter      E             dE          RMSdq      gap      omega  full diag
   1  -3478.7490444 -0.347875E+04  0.347E-03   11.01       0.0  T
   2  -3478.7490449 -0.536973E-06  0.209E-03   11.01       1.0  T
   3  -3478.7490450 -0.533373E-07  0.130E-04   11.01      13.4  T
   4  -3478.7490450 -0.113405E-07  0.658E-05   11.01      26.6  T
     SCC iter.                  ...        3 min, 59.640 sec
     gradient                   ...        3 min, 24.564 sec
 * total energy  : -3427.5321583 Eh     change    :  -0.2055260E-02 Eh
   gradient norm :     0.0118420 Eh/a0  converged?    E=F G=F D=F
   time step     :     0.9493746 fs     power     :   0.2741749E-07
   step length   :     0.2215738 a0     speed     :   0.5645416E-02

........................................................................
.............................. CYCLE   62 ..............................
........................................................................

 iter      E             dE          RMSdq      gap      omega  full diag
   1  -3478.7910645 -0.347879E+04  0.497E-03   11.02       0.0  T
   2  -3478.7910655 -0.107828E-05  0.287E-03   11.02       1.0  T
   3  -3478.7910656 -0.615819E-07  0.226E-04   11.02       7.7  T
   4  -3478.7910656 -0.119658E-07  0.631E-05   11.02      27.7  T
     SCC iter.                  ...        3 min, 58.651 sec
     gradient                   ...        3 min, 25.958 sec
 * total energy  : -3427.5343685 Eh     change    :  -0.2210187E-02 Eh
   gradient norm :     0.0104591 Eh/a0  converged?    E=F G=F D=F
   time step     :     1.0443120 fs     power     :   0.2612509E-07
   step length   :     0.2484245 a0     speed     :   0.5754125E-02

........................................................................
.............................. CYCLE   63 ..............................
........................................................................

 iter      E             dE          RMSdq      gap      omega  full diag
   1  -3478.8120442 -0.347881E+04  0.490E-03   11.02       0.0  T
   2  -3478.8120446 -0.465815E-06  0.288E-03   11.02       1.0  T
   3  -3478.8120447 -0.612722E-07  0.145E-04   11.02      12.1  T
   4  -3478.8120447 -0.202444E-07  0.664E-05   11.02      26.4  T
     SCC iter.                  ...        3 min, 56.631 sec
     gradient                   ...        3 min, 25.537 sec
 * total energy  : -3427.5366809 Eh     change    :  -0.2312400E-02 Eh
   gradient norm :     0.0098939 Eh/a0  converged?    E=F G=F D=F
   time step     :     1.1487432 fs     power     :   0.2513847E-07
   step length   :     0.2794917 a0     speed     :   0.5885197E-02

........................................................................
.............................. CYCLE   64 ..............................
........................................................................

 iter      E             dE          RMSdq      gap      omega  full diag
   1  -3478.8035859 -0.347880E+04  0.481E-03   11.03       0.0  T
   2  -3478.8035884 -0.248444E-05  0.288E-03   11.03       1.0  T
   3  -3478.8035884 -0.623354E-07  0.309E-04   11.03       5.7  T
   4  -3478.8035885 -0.301320E-07  0.750E-05   11.03      23.4  T
     SCC iter.                  ...        3 min, 57.102 sec
     gradient                   ...        3 min, 23.371 sec
 * total energy  : -3427.5390409 Eh     change    :  -0.2359961E-02 Eh
   gradient norm :     0.0113464 Eh/a0  converged?    E=F G=F D=F
   time step     :     1.2500000 fs     power     :   0.2286578E-07
   step length   :     0.3110185 a0     speed     :   0.6018542E-02

........................................................................
.............................. CYCLE   65 ..............................
........................................................................

 iter      E             dE          RMSdq      gap      omega  full diag
   1  -3478.8413474 -0.347884E+04  0.593E-03   11.03       0.0  T
   2  -3478.8413491 -0.165453E-05  0.343E-03   11.03       1.0  T
   3  -3478.8413491 -0.636110E-07  0.278E-04   11.03       6.3  T
   4  -3478.8413492 -0.240980E-07  0.696E-05   11.03      25.2  T
     SCC iter.                  ...        3 min, 58.163 sec
     gradient                   ...        3 min, 24.296 sec
 * total energy  : -3427.5412903 Eh     change    :  -0.2249416E-02 Eh
   gradient norm :     0.0102753 Eh/a0  converged?    E=F G=F D=F
   time step     :     1.2500000 fs     power     :   0.2165878E-07
   step length   :     0.3127955 a0     speed     :   0.6052930E-02

........................................................................
.............................. CYCLE   66 ..............................
........................................................................

 iter      E             dE          RMSdq      gap      omega  full diag
   1  -3478.8482750 -0.347885E+04  0.450E-03   11.04       0.0  T
   2  -3478.8482759 -0.897878E-06  0.268E-03   11.04       1.0  T
   3  -3478.8482760 -0.645691E-07  0.166E-04   11.04      10.6  T
   4  -3478.8482760 -0.189639E-07  0.760E-05   11.04      23.0  T
     SCC iter.                  ...        4 min,  5.134 sec
     gradient                   ...        3 min, 23.846 sec
 * total energy  : -3427.5434481 Eh     change    :  -0.2157764E-02 Eh
   gradient norm :     0.0090111 Eh/a0  converged?    E=F G=F D=F
   time step     :     1.2500000 fs     power     :   0.2147456E-07
   step length   :     0.3144304 a0     speed     :   0.6084566E-02

[...]
  3011   6 C     3012   6 C                                       1.5264630
  3012   6 C     3013   6 C                                       1.5263127
  3013   6 C     3014   6 C                                       1.5264756
  3014   6 C     3015   6 C                                       1.5264681
  3015   6 C     3016   6 C                                       1.5239143
  3015   6 C     3017   1 H                                       1.0928428
  3015   6 C     3018   1 H                                       1.0931896
  3014   6 C     3019   1 H                                       1.0921556
  3014   6 C     3020   1 H                                       1.0928625
  3013   6 C     3021   1 H                                       1.0932496
  3013   6 C     3022   1 H                                       1.0921601
  3012   6 C     3023   1 H                                       1.0929430
  3012   6 C     3024   1 H                                       1.0926764
  3011   6 C     3025   1 H                                       1.0932245
  3011   6 C     3026   1 H                                       1.0932392
  3010   6 C     3027   1 H                                       1.0924298
  3010   6 C     3028   1 H                                       1.0927879
  3009   6 C     3029   1 H                                       1.0935026
  3009   6 C     3030   1 H                                       1.0922757
  3008   6 C     3031   1 H                                       1.0929009
  3008   6 C     3032   1 H                                       1.0928230
  3007   6 C     3033   1 H                                       1.0933356
  3007   6 C     3034   1 H                                       1.0937261
  3006   6 C     3035   1 H                                       1.0923694
  3006   6 C     3036   1 H                                       1.0928835
  3005   6 C     3037   1 H                                       1.0930692
  3005   6 C     3038   1 H                                       1.0932635
  3004   6 C     3039   1 H                                       1.0918953
  3004   6 C     3040   1 H                                       1.0931330
  3003   6 C     3041   1 H                                       1.0931106
  3003   6 C     3042   1 H                                       1.0925620
  3002   6 C     3043   1 H                                       1.0918527
  3002   6 C     3044   1 H                                       1.0929949
  3001   6 C     3045   1 H                                       1.0932661
  3001   6 C     3046   1 H                                       1.0913745
  3000   6 C     3047   1 H                                       1.0937220
  3000   6 C     3048   1 H                                       1.0926057
  2999   6 C     3049   1 H                                       1.0926868
  2999   6 C     3050   1 H                                       1.0938606
  2998   6 C     3051   1 H                                       1.0910684
  2998   6 C     3052   1 H                                       1.0938572
  2997   6 C     3053   1 H                                       1.0932219
  2997   6 C     3054   1 H                                       1.0917477
  2996   6 C     3055   1 H                                       1.0917773
  2996   6 C     3056   1 H                                       1.0934977
  2995   6 C     3057   1 H                                       1.0931541
  2995   6 C     3058   1 H                                       1.0922182
  2994   6 C     3059   1 H                                       1.0921907
  2994   6 C     3060   1 H                                       1.0931142
  2993   6 C     3061   1 H                                       1.0928793
  2993   6 C     3062   1 H                                       1.0927428
  2992   6 C     3063   1 H                                       1.0927453
  2992   6 C     3064   1 H                                       1.0929649
  2991   6 C     3065   1 H                                       1.0934978
  2991   6 C     3066   1 H                                       1.0917480
  2990   6 C     3067   1 H                                       1.0917340
  2990   6 C     3068   1 H                                       1.0924658
  2989   6 C     3069   1 H                                       1.0934724
  2989   6 C     3070   1 H                                       1.0931299
  2988   6 C     3071   1 H                                       1.0916690
  2988   6 C     3072   1 H                                       1.0940218
  2987   6 C     3073   1 H                                       1.0930538
  2987   6 C     3074   1 H                                       1.0920126
  2986   6 C     3075   1 H                                       1.0918750
  2986   6 C     3076   1 H                                       1.0934148
  2985   6 C     3077   1 H                                       1.0924278
  2985   6 C     3078   1 H                                       1.0934236
  2984   6 C     3079   1 H                                       1.0922775
  2984   6 C     3080   1 H                                       1.0933255
  2983   6 C     3081   1 H                                       1.0919121
  2983   6 C     3082   1 H                                       1.0916256
  2982   6 C     3083   1 H                                       1.0921834
  2982   6 C     3084   1 H                                       1.0934861
  2981   6 C     3085   1 H                                       1.0923718
  2981   6 C     3086   1 H                                       1.0937029
  2980   6 C     3087   1 H                                       1.0925567
  2980   6 C     3088   1 H                                       1.0940120
  2979   6 C     3089   1 H                                       1.0922551
  2979   6 C     3090   1 H                                       1.0916905
  2978   6 C     3091   1 H                                       1.0937155
  2978   6 C     3092   1 H                                       1.0922323
  2977   6 C     3093   1 H                                       1.0920651
  2977   6 C     3094   1 H                                       1.0920199
  2976   6 C     3095   1 H                                       1.0931615
  2976   6 C     3096   1 H                                       1.0924728
  2975   6 C     3097   1 H                                       1.0932450
  2975   6 C     3098   1 H                                       1.0923710
  2974   6 C     3099   1 H                                       1.0927573
  2974   6 C     3100   1 H                                       1.0934128
  2973   6 C     3101   1 H                                       1.0929307
  2973   6 C     3102   1 H                                       1.0926081
  2972   6 C     3103   1 H                                       1.0926399
  2972   6 C     3104   1 H                                       1.0926054
  2971   6 C     3105   1 H                                       1.0926943
  2971   6 C     3106   1 H                                       1.0929226
  2970   6 C     3107   1 H                                       1.0924055
  2970   6 C     3108   1 H                                       1.0920382
  2969   6 C     3109   1 H                                       1.0928736
  2969   6 C     3110   1 H                                       1.0931509
  2968   6 C     3111   1 H                                       1.0923650
  2968   6 C     3112   1 H                                       1.0919929
  2967   6 C     3113   1 H                                       1.0926316
  2967   6 C     3114   1 H                                       1.0934740
  2966   6 C     3115   1 H                                       1.0925713
  2966   6 C     3116   1 H                                       1.0924743
  2965   6 C     3117   1 H                                       1.0920782
  2965   6 C     3118   1 H                                       1.0937580
  2964   6 C     3119   1 H                                       1.0927329
  2964   6 C     3120   1 H                                       1.0931499
  2963   6 C     3121   1 H                                       1.0920288
  2963   6 C     3122   1 H                                       1.0936563
  2962   6 C     3123   1 H                                       1.0926903
  2962   6 C     3124   1 H                                       1.0928195
  2961   6 C     3125   1 H                                       1.0927649
  2961   6 C     3126   1 H                                       1.0934836
  2960   6 C     3127   1 H                                       1.0930580
  2960   6 C     3128   1 H                                       1.0913337
  2959   6 C     3129   1 H                                       1.0929214
  2959   6 C     3130   1 H                                       1.0933609
  2958   6 C     3131   1 H                                       1.0936247
  2958   6 C     3132   1 H                                       1.0927127
  2957   6 C     3133   1 H                                       1.0921048
  2957   6 C     3134   1 H                                       1.0892522
  2956   6 C     3135   1 H                                       1.0919366
  2956   6 C     3136   1 H                                       1.0931555
  2955   6 C     3137   1 H                                       1.0932961
  2955   6 C     3138   1 H                                       1.0909834
  2954   6 C     3139   1 H                                       1.0932284
  2954   6 C     3140   1 H                                       1.0931758
  2953   6 C     3141   1 H                                       1.0917311
  2953   6 C     3142   1 H                                       1.0935022
  2952   6 C     3143   1 H                                       1.0927290
  2952   6 C     3144   1 H                                       1.0907695
  2951   6 C     3145   1 H                                       1.0932186
  2951   6 C     3146   1 H                                       1.0933576
  2950   6 C     3147   1 H                                       1.0924812
  2950   6 C     3148   1 H                                       1.0912597
  2949   6 C     3149   1 H                                       1.0931698
  2949   6 C     3150   1 H                                       1.0933073
  2948   6 C     3151   1 H                                       1.0923456
  2948   6 C     3152   1 H                                       1.0920058
  2947   6 C     3153   1 H                                       1.0932393
  2947   6 C     3154   1 H                                       1.0933381
  2946   6 C     3155   1 H                                       1.0923464
  2946   6 C     3156   1 H                                       1.0902980
  2945   6 C     3157   1 H                                       1.0932038
  2945   6 C     3158   1 H                                       1.0933425
  2944   6 C     3159   1 H                                       1.0934732
  2944   6 C     3160   1 H                                       1.0924942
  2943   6 C     3161   1 H                                       1.0901565
  2943   6 C     3162   1 H                                       1.0929184
  2942   6 C     3163   1 H                                       1.0930377
  2942   6 C     3164   1 H                                       1.0928930
  2941   6 C     3165   1 H                                       1.0921921
  2941   6 C     3166   1 H                                       1.0930286
  2940   6 C     3167   1 H                                       1.0924610
  2940   6 C     3168   1 H                                       1.0899747
  2939   6 C     3169   1 H                                       1.0927252
  2939   6 C     3170   1 H                                       1.0933374
  2938   6 C     3171   1 H                                       1.0920506
  2938   6 C     3172   1 H                                       1.0935661
  2937   6 C     3173   1 H                                       1.0913274
  2937   6 C     3174   1 H                                       1.0925835
  2936   6 C     3175   1 H                                       1.0930175
  2936   6 C     3176   1 H                                       1.0934529
  2935   6 C     3177   1 H                                       1.0927656
  2935   6 C     3178   1 H                                       1.0924836
  2934   6 C     3179   1 H                                       1.0925561
  2934   6 C     3180   1 H                                       1.0927143
  2933   6 C     3181   1 H                                       1.0925673
  2933   6 C     3182   1 H                                       1.0926228
  2932   6 C     3183   1 H                                       1.0919073
  2932   6 C     3184   1 H                                       1.0929130
  2931   6 C     3185   1 H                                       1.0925889
  2931   6 C     3186   1 H                                       1.0926079
  2930   6 C     3187   1 H                                       1.0918295
  2930   6 C     3188   1 H                                       1.0934273
  2929   6 C     3189   1 H                                       1.0926897
  2929   6 C     3190   1 H                                       1.0925460
  2928   6 C     3191   1 H                                       1.0919091
  2928   6 C     3192   1 H                                       1.0936216
  2927   6 C     3193   1 H                                       1.0928579
  2927   6 C     3194   1 H                                       1.0924691
  2926   6 C     3195   1 H                                       1.0920258
  2926   6 C     3196   1 H                                       1.0936265
  2925   6 C     3197   1 H                                       1.0930582
  2925   6 C     3198   1 H                                       1.0923823
  2924   6 C     3199   1 H                                       1.0921404
  2924   6 C     3200   1 H                                       1.0936361
  2923   6 C     3201   1 H                                       1.0932386
  2923   6 C     3202   1 H                                       1.0922985
  2922   6 C     3203   1 H                                       1.0922185
  2922   6 C     3204   1 H                                       1.0936742
  2921   6 C     3205   1 H                                       1.0933131
  2921   6 C     3206   1 H                                       1.0923936
  2920   6 C     3207   1 H                                       1.0922549
  2920   6 C     3208   1 H                                       1.0935624
  2919   6 C     3209   1 H                                       1.0931240
  2919   6 C     3210   1 H                                       1.0928683
  2918   6 C     3211   1 H                                       1.0923764
  2918   6 C     3212   1 H                                       1.0930327
  2917   6 C     3213   1 H                                       1.0927112
  2917   6 C     3214   1 H                                       1.0930890
  2916   6 C     3215   1 H                                       1.0929089
  2916   6 C     3216   1 H                                       1.0923087
  2915   6 C     3217   1 H                                       1.0924285
  2915   6 C     3218   1 H                                       1.0914597
  2914   6 C     3219   1 H                                       1.0927499
  2914   6 C     3220   1 H                                       1.0925159
  2913   6 C     3221   1 H                                       1.0923965
  2913   6 C     3222   1 H                                       1.0923211
  2912   6 C     3223   1 H                                       1.0924155
  2912   6 C     3224   1 H                                       1.0926642
  2911   6 C     3225   1 H                                       1.0928728
  2911   6 C     3226   1 H                                       1.0924795
  2910   6 C     3227   1 H                                       1.0924433
  2910   6 C     3228   1 H                                       1.0918491
  2909   6 C     3229   1 H                                       1.0931584
  2909   6 C     3230   1 H                                       1.0929468
  2908   6 C     3231   1 H                                       1.0932188
  2908   6 C     3232   1 H                                       1.0913999
  2907   6 C     3233   1 H                                       1.0916962
  2907   6 C     3234   1 H                                       1.0933778
  2906   6 C     3235   1 H                                       1.0935186
  2906   6 C     3236   1 H                                       1.0931202
  2905   6 C     3237   1 H                                       1.0912779
  2905   6 C     3238   1 H                                       1.0927043
  2904   6 C     3239   1 H                                       1.0931691
  2904   6 C     3240   1 H                                       1.0932552
  2903   6 C     3241   1 H                                       1.0921410
  2903   6 C     3242   1 H                                       1.0916194
  2902   6 C     3243   1 H                                       1.0914211
  2902   6 C     3244   1 H                                       1.0934201
  2901   6 C     3245   1 H                                       1.0931793
  2901   6 C     3246   1 H                                       1.0932784
  2900   6 C     3247   1 H                                       1.0929527
  2900   6 C     3248   1 H                                       1.0899779
  2899   6 C     3249   1 H                                       1.0917377
  2899   6 C     3250   1 H                                       1.0934783
  2898   6 C     3251   1 H                                       1.0931641
  2898   6 C     3252   1 H                                       1.0929188
  2897   6 C     3253   1 H                                       1.0860065 (min)
  2897   6 C     3254   1 H                                       1.0881713
  2897   6 C     3255   1 H                                       1.0881151
  3016   6 C     3256   1 H                                       1.0879405
  3016   6 C     3257   1 H                                       1.0876159
  3016   6 C     3258   1 H                                       1.0878216

 * 2 distinct bonds (by element types)

   Z      Z             #   av. dist./Å        max./Å        min./Å
   1 H    6 C        2178     1.0925957     1.0950004     1.0860065
   6 C    6 C        1071     1.5270847     1.5325750     1.5217905


optimized geometry written to: xtbopt.xyz


           -------------------------------------------------
          | TOTAL ENERGY            -3427.625322762780 Eh   |
          | GRADIENT NORM               0.000727457213 Eh/α |
          | HOMO-LUMO GAP              11.320080516418 eV   |
           -------------------------------------------------

------------------------------------------------------------------------
 * finished run on 2024/06/20 at 21:13:46.492     
------------------------------------------------------------------------
 total:
 * wall-time:     3 d,  5 h, 55 min,  0.504 sec
 *  cpu-time:    17 d, 18 h, 58 min, 21.140 sec
 * ratio c/w:     5.480 speedup
 SCF:
 * wall-time:     0 d,  0 h,  6 min, 54.462 sec
 *  cpu-time:     0 d,  0 h, 37 min, 39.276 sec
 * ratio c/w:     5.451 speedup
 ANC optimizer:
 * wall-time:     3 d,  5 h, 47 min, 24.603 sec
 *  cpu-time:    17 d, 18 h, 19 min, 44.124 sec
 * ratio c/w:     5.480 speedup

