3536
 energy: -3716.280311771574 gnorm: 0.000660737506 xtb: 6.6.1 (8d0f1dd)
C           44.71932205237091       55.22444185838696       66.62789898422912
C           45.69396674979293       55.58847531282825       65.50809145671330
C           45.73349537909915       57.10429365986292       65.33952828435167
C           45.27503638251706       54.86609554425615       64.22378573889692
C           46.20564372081903       55.01753789349550       63.01374093307149
C           45.49035387486228       54.48105253622187       61.77499210099488
C           47.53254447096794       54.27690877345852       63.21894436621026
C           48.66233663737147       54.74966487589165       62.29103083827679
C           49.72856055799799       53.66206432920044       62.18253125980652
C           49.25780424352710       56.05915367842005       62.82147779878792
C           50.20357260663238       56.81490878840490       61.87782337057690
C           50.88691815110850       57.93789095694433       62.65800796735905
C           49.44509774907618       57.36414475497288       60.66488187602146
C           50.27787638509870       58.14165165065494       59.63463116776668
C           49.32807396771182       58.72969793361134       58.59165891086319
C           51.33039777985972       57.24190012337635       58.97732227552633
C           52.37228922380056       57.95140834642405       58.09998667664239
C           53.15854435003266       56.90739019347985       57.31076730330717
C           53.31858466593825       58.80590813433901       58.94817274701504
C           54.42384572480263       59.55150953188522       58.18346446541199
C           55.31248534592409       60.25304623670603       59.20872065852928
C           53.81179355588833       60.53280444494175       57.17538592542861
C           54.78582872757188       61.42606465604059       56.39648266905455
C           53.98630811077788       62.46315687711795       55.60761152433594
C           55.67714270321406       60.61790091060230       55.44694044285195
C           56.89337132187624       61.40551427992784       54.92365359910857
C           56.79212917335119       61.62449942203374       53.41324701165747
C           58.22213600868867       60.70213213561599       55.23411719668338
C           58.53166396238294       60.46264617876732       56.71636528845578
C           58.73548753968244       61.77545252007554       57.47154888337506
C           59.79528518948286       59.60564483581482       56.87801451076972
C           59.65955306780724       58.13068099037161       56.47628519675588
C           58.89956595764188       57.35305384153828       57.55037297242469
C           61.04145859304119       57.49275472016883       56.22452317693368
C           61.33599761110315       57.19863551386313       54.74707520901588
C           62.59481389242541       56.34103680544071       54.63062582702832
C           61.48115804505716       58.48100626497894       53.91607790701154
C           61.18160750463877       58.29027167324953       52.42154330802371
C           61.71191762386393       59.49119615505410       51.63846417343202
C           59.67165476590962       58.09026048057055       52.18706767332869
C           59.31537552506230       56.94489738995807       51.22597162638328
C           59.23405136318522       57.45520291981193       49.78784187816137
C           57.99349095278416       56.26145529498210       51.61383265182893
C           58.02506884307951       55.47656855372752       52.93267605458997
C           59.06439055991176       54.35751052546651       52.89257052580207
C           56.65240265555191       54.87348320609195       53.27222884856143
C           55.51419455517127       55.87590205653265       53.49629385115397
C           55.92192799805188       56.98522024764587       54.46638738911993
C           54.25852185231656       55.19180518484783       54.06070627816439
C           53.62515085734700       54.07767014019944       53.21882966957615
C           53.25245523527207       54.57908967572182       51.82427056592074
C           52.36773242314511       53.53368032049693       53.92183460215778
C           52.63821143943392       52.55171434058834       55.06914061282828
C           53.03818154922158       51.18347782861354       54.51781998202468
C           51.40297415206030       52.38882995033582       55.97048756172219
C           51.16236640215921       53.51619331138762       56.98111183060217
C           52.24411527537848       53.51688643397884       58.05957962785499
C           49.80065872032408       53.35423078728486       57.67431193362690
C           48.55929987995157       53.63536578532194       56.82308401856325
C           48.48886302947123       55.10688183817808       56.41806226906501
C           47.26983561430769       53.28469732759793       57.58327601479525
C           47.12572749324941       51.84164826584710       58.08899344949242
C           47.32051014726374       50.83337757195134       56.96238324571188
C           45.74206514769282       51.69419474490078       58.73722268970516
C           45.45866041402834       50.37584491062181       59.47361662174377
C           43.96729998368232       50.31754208509290       59.80206790587303
C           46.31219620967286       50.26054442375983       60.74173836952934
C           46.25078165366951       48.91284656655757       61.47550562168809
C           46.86110421651642       49.07444351338732       62.86660973735387
C           46.96644814543795       47.80406065919197       60.69569187754793
C           46.68457466724724       46.38229111645478       61.22269805296000
C           47.92915461102220       45.77505330451174       61.86873739233238
C           46.18808175496360       45.46578535341358       60.09854524411956
C           44.76215894301613       45.79551324933438       59.62569746927579
C           43.73777548615269       45.04648453311449       60.47456294337204
C           44.63231943526674       45.45296591316617       58.13907870941675
C           43.27537877329054       45.71231878150488       57.46797471158565
C           43.44215145115089       45.42064448337027       55.97811750468514
C           42.78815045572465       47.14657383899765       57.70537861487171
C           41.50694328251278       47.55947345677629       56.96623901281372
C           41.27777494603176       49.05538511431087       57.17999473219770
C           40.27715841667459       46.77556739234368       57.44335412762343
C           39.12225133800812       46.76188517711208       56.42675364347771
C           37.78653907677101       46.64101024228886       57.15872706896109
C           39.31369503301594       45.60995983176100       55.43156912495001
C           38.44934266474189       45.67330995537854       54.16597162698022
C           38.42510286062168       44.29929144408911       53.49415446912366
C           38.88733018630978       46.76871545391363       53.18143149859633
C           40.24633799453738       46.56159377975218       52.51493188146411
C           40.53302005231245       47.66379150716490       51.50204790528635
H           43.70881340359818       55.53514578419603       66.36799136194608
H           44.71135845395273       54.15019898161339       66.80190557219642
H           44.99790001403254       55.71968238076047       67.55591008503964
H           39.77413483700996       47.67354987434472       50.72169250911617
H           40.53431258834296       48.63815557685190       51.98665442405851
H           41.50288954121124       47.51294683332891       51.03394517218278
H           38.12785710234913       46.83716874884135       52.39641527804700
H           38.89636581278423       47.72902378884838       53.70235425066559
H           40.36032144723006       45.56814419648234       55.12950540128643
H           39.09279696072873       44.67349999484802       55.95156529438486
H           39.12265571068608       47.70818867455434       55.87794513680269
H           37.76162517645916       45.73174588125737       57.75695009070424
H           37.63925469076464       47.49237829293303       57.82012587117659
H           36.95406403287537       46.61316369509605       56.45977519554489
H           40.54942917895984       45.74186648528060       57.66179181869658
H           39.93087780761201       47.21937818569146       58.38006424023199
H           42.61524638995770       47.29233028443021       58.77339772239428
H           43.58661078568552       47.82998121488831       57.40424486550793
H           37.42069173357388       45.91214100262669       54.46111282538275
H           39.43545276387965       43.94094512664041       53.31336492921242
H           37.91999485610405       43.57663930923758       54.13198007936620
H           37.89528941583382       44.34381585720954       52.54470247406202
H           41.64333907248318       47.39187495751953       55.89443096313521
H           41.18501253601618       49.27578853998709       58.24230171015306
H           42.10845845364481       49.63373125859592       56.78261833091706
H           40.36639125308800       49.38283344199465       56.68438122934017
H           42.54447607916210       45.00854055171054       57.87995759632680
H           43.91212112676069       44.45008778688214       55.83797212766824
H           42.48400938237668       45.40857761275419       55.46666830317427
H           44.06798003490827       46.17891660811816       55.51298742302408
H           45.38610969652667       46.02809055124990       57.59528448479045
H           44.87768620713607       44.39496798724827       58.00860868230412
H           44.59763764142016       46.86934124699270       59.75110069974295
H           43.81117165216826       43.97448170070852       60.29908580064106
H           43.91102632881832       45.23074711138316       61.53284413958357
H           42.72418179607411       45.36358153242050       60.24105199413627
H           46.88597729027150       45.54348470357348       59.26085063304508
H           46.21153701199587       44.42749934189465       60.43946120559063
H           45.89892249534887       46.43199848794197       61.98519136639840
H           48.70870428511604       45.62959635400730       61.12332531819086
H           48.31394950837930       46.42651322116447       62.65001378413502
H           47.69796161378969       44.80837127972637       62.31509977108281
H           46.65972806048547       47.86023434408215       59.65085896829283
H           48.04071187578951       47.99454429220231       60.72386305374405
H           45.20162049281826       48.62289510332094       61.59831166133997
H           46.32423441389721       49.82942469065583       63.43655544155822
H           46.81611594147474       48.14067366633058       63.42112752350497
H           47.90329603599800       49.37935439738033       62.79054579188823
H           47.35538521041561       50.45597388992201       60.49148991818623
H           45.99129493888600       51.04469827604540       61.43354932825127
H           45.68607056024168       49.54003189585299       58.80585613461457
H           43.69503055002097       51.12032847123935       60.48372437170129
H           43.37437696389738       50.42919037402906       58.89791943875954
H           43.69666109564426       49.37064903036524       60.26191005373009
H           45.60218036854148       52.51164383449217       59.44853848745851
H           44.98771983416681       51.81636107639782       57.95459449142909
H           47.88546010314004       51.66156414938688       58.85297578523912
H           47.17744424136438       49.81952339470440       57.32524074557099
H           46.60664135786502       51.01826493234943       56.16118786719598
H           48.32511226960004       50.90031476909935       56.55454746107262
H           47.18738499593764       53.95649299069554       58.44297814991251
H           46.42341078206127       53.50105197225163       56.92509295558263
H           48.59967235764166       53.03735914733829       55.90809073523323
H           47.59079703336229       55.29411933424605       55.83337356740663
H           48.45930403998186       55.74270825088704       57.30140768250398
H           49.34756460652132       55.39455342663661       55.81757281595175
H           49.75072737109244       52.33115759703288       58.04735158091280
H           49.76858628102949       54.02032879986179       58.54161779938363
H           51.19331558798652       54.47637106170913       56.45856593540957
H           52.05747371221399       54.30243915395062       58.78782272682363
H           52.24792570475009       52.56145096210231       58.57846960323086
H           53.22943043957908       53.68599741636920       57.63557067252995
H           50.52795830638879       52.28896012094474       55.32602179075710
H           51.50083891580272       51.45487654222003       56.53162287926757
H           53.46973628727267       52.93061275247678       55.66917364100087
H           53.27639487826122       50.49923640737433       55.32968269968254
H           52.22297787372717       50.75662755750018       53.93664787953910
H           53.91122865831620       51.26002494699660       53.87536746238948
H           51.78955636110735       54.38109925622754       54.29758876822181
H           51.74231592643946       53.02301781903745       53.18444868288791
H           54.34389578887247       53.26091912007941       53.10417022633288
H           52.56595883475900       55.42156714664686       51.89054140350034
H           54.13349785919686       54.89860776527278       51.27341417808847
H           52.76796991141912       53.78876325082575       51.25362334326326
H           54.50636571967694       54.78957803179902       55.04567590253277
H           53.50285556154676       55.96748803154895       54.21182000565244
H           55.25722241806970       56.34158064948262       52.54132166584797
H           55.06117361261937       57.60673696061846       54.70245330398549
H           56.30327027449636       56.56418616145388       55.39483298929378
H           56.68524349693566       57.62942234168003       54.03802929923194
H           56.36984270460428       54.18865959156469       52.46891446984144
H           56.76307432022114       54.28140206911778       54.18499873435944
H           58.30551443499714       56.14837564051763       53.74832817470565
H           60.06978875294653       54.75413503661036       52.78607260742393
H           59.03853925914589       53.78643017125540       53.81733660481950
H           58.87411314814376       53.67735044045222       52.06493687392604
H           57.21831532298485       57.02890393184046       51.66946455986484
H           57.71178854372376       55.57016767986320       50.81449818849500
H           60.11170359603413       56.19571067520262       51.25903133030639
H           59.05343095481199       56.63491781285644       49.09535358917790
H           58.42870843232018       58.17982437770648       49.67768710422880
H           60.16704052919269       57.93479548492227       49.49942474493001
H           59.20058033920578       57.89472314606355       53.14880087129411
H           59.23767176600830       59.01982191871099       51.81183661444651
H           61.71778013897709       57.40050273873395       52.07266241316628
H           61.23889159181512       60.40863577201944       51.98356900302844
H           62.78828697680092       59.59184473490189       51.77111330418739
H           61.51258340474815       59.38529697798074       50.57437565232740
H           60.80442409572247       59.24715055073676       54.29357119278099
H           62.50057929696019       58.85742933414647       54.03527563147494
H           60.50102725023416       56.61248234472362       54.35183342242942
H           62.46224155572278       55.39040580192085       55.14358435725318
H           62.82443103664249       56.13545553530992       53.58764921507440
H           63.44790726859522       56.85453129150910       55.07284371814416
H           61.82556193201629       58.14002844281926       56.62234791440696
H           61.10068301796355       56.54743111047770       56.76814759585783
H           59.07806893269624       58.06381920295766       55.55184453045698
H           59.45408466643140       57.35656866382175       58.48679753091763
H           57.92139598903849       57.79207478120169       57.73260547461651
H           58.75237248510420       56.32002561943228       57.24101313072846
H           60.59453684071527       60.07069278557694       56.29615178126444
H           60.10165944378667       59.63884053768034       57.92532359707378
H           57.69297314194954       59.93413337182522       57.17684630237779
H           57.86599706469686       62.42242786124851       57.38610309221427
H           58.90471796299600       61.57887695523716       58.52867257634590
H           59.60122073370326       62.30777538393149       57.08271935372102
H           58.21246180727132       59.74135966736105       54.71520222007864
H           59.03513844396831       61.29433445959132       54.80476639583797
H           56.90681147982972       62.39265577913253       55.39696047515159
H           55.85776001254462       62.11895062647899       53.15756255388553
H           57.61288469135524       62.24452370018303       53.05672208808205
H           56.83081055670372       60.67252919570708       52.88632187922585
H           56.02351096127535       59.72069738208998       55.95688879430594
H           55.06646431024162       60.28573643571856       54.60454170466240
H           55.41891035613827       61.96085774590201       57.11090896423131
H           54.64868629433364       63.13471400125007       55.06691470021611
H           53.33664366426918       61.97286363880698       54.88498983376568
H           53.36692121745634       63.06178584834652       56.27098661495052
H           53.22715793556622       59.96711515957905       56.44677638417252
H           53.12031528531865       61.18180193505368       57.71698788215317
H           55.03752730083253       58.81867294910735       57.65148276928070
H           54.73835406425763       60.99460375167331       59.75781063359987
H           55.70516101559510       59.53042505699414       59.92235349345073
H           56.15604221968056       60.74824848827427       58.73791062203249
H           52.73671029170843       59.54925365886388       59.49799693935852
H           53.79460588667035       58.15320198155795       59.68645567577981
H           51.84952782619259       58.59816212069528       57.39108026700027
H           53.78044313221335       56.31468638034500       57.97796779328674
H           52.48693090950042       56.23481797946638       56.78573297597196
H           53.79847663710706       57.37899752606636       56.57236136069344
H           51.87069858926151       56.69732193677788       59.75400910440903
H           50.80454476229153       56.50517897065909       58.36446455558207
H           50.77688970483665       58.97099223379320       60.14302996763165
H           48.78831429377556       57.93682386079885       58.07724833529798
H           48.60059138213961       59.38821022968935       59.06395468304759
H           49.86925534838789       59.30931452275654       57.84828996941678
H           48.96010015708890       56.53543990701074       60.14376969485670
H           48.65207350201916       58.02257081261030       61.03248792272276
H           50.97466308443786       56.11928551526977       61.53841602842067
H           51.36761083653924       57.54384582606340       63.55047153486572
H           51.65096955536900       58.42561260316113       62.05863931543350
H           50.16043361025626       58.68730144661167       62.96653370290991
H           48.44533937182488       56.73606612282252       63.09581603378363
H           49.80555429643564       55.82345682773997       63.73621144101425
H           48.24443833104093       54.91487853928259       61.29401369483582
H           49.28613186577846       52.73017855246658       61.83693465774930
H           50.50576780270148       53.94676044458652       61.47778198803066
H           50.19010348332147       53.48370861605163       63.15210649196940
H           47.86829329566900       54.39523050352334       64.25073924010506
H           47.35496375106011       53.21032103872236       63.05619872983883
H           46.40598587311100       56.08015256963692       62.85163570867861
H           46.12303161451120       54.55851920697977       60.89379787654413
H           45.22694111913060       53.43463956954428       61.91454236999061
H           44.57466746270854       55.03662460801001       61.58717095973721
H           45.18090863708656       53.80055178501856       64.44708271854192
H           44.28074751870459       55.22588600783454       63.94521130702357
H           46.69112370680601       55.24580023399690       65.80468243867251
H           46.00562265254972       57.57925044427029       66.27971966002467
H           46.46205317222788       57.40334421432740       64.59113813256117
H           44.75647849907170       57.47628401673441       65.03699523285859
H           41.03592044759277       46.55729481083725       53.26784939301759
H           40.26788421166764       45.59917432812604       52.00269805358759
C           67.03000390727301       55.17911974958145       51.94973242799789
C           65.79742104076703       55.68336469355112       51.20289209931409
C           65.31429941020814       56.99180372544734       51.82389063797469
C           64.70495177539716       54.60708970969811       51.21686961607902
C           63.58363962342024       54.81521588612781       50.19014847702119
C           62.37075159802475       53.96396852891957       50.55932577689826
C           64.08594240765930       54.46401156286880       48.78459699811983
C           63.25876423928104       54.99841056871815       47.60599817261311
C           63.91636436507120       54.51047688441361       46.31501212590123
C           63.16738413878395       56.52838949759341       47.66876973060625
C           62.63048542641459       57.24798517417452       46.42423051260237
C           62.63830805142523       58.75172286832077       46.69919291184893
C           61.22555316203233       56.75575816759264       46.06069321158623
C           60.54414466040022       57.45959571925037       44.87758654928993
C           59.13025780212620       56.89827760619354       44.73409178482211
C           61.34222183821651       57.28661110923963       43.57904063400932
C           60.91101463525354       58.20194195077519       42.42506720808230
C           61.52006970855724       57.69087471079404       41.11925690141470
C           61.32882032110071       59.66036816182645       42.66308819338171
C           60.42103503783431       60.68637622910681       41.96753001435809
C           61.15570994121361       62.01723150450663       41.81589087987562
C           59.13057690259886       60.87372967775872       42.77572136915980
C           57.97922541391824       61.58497861889688       42.03992817490318
C           57.33577078977724       62.62113110963545       42.96318716476917
C           56.90260983957769       60.60049168815490       41.56147850203927
C           57.29934393496082       59.72683118100294       40.36524173769043
C           57.21547119328906       60.52452158881591       39.06519413800845
C           56.39623920787830       58.48715104364347       40.28293705286953
C           56.82583795083951       57.37372314784128       41.24676957280145
C           57.95645515004484       56.55410804541409       40.62794682893720
C           55.66884628730953       56.43654512321436       41.61103696821099
C           54.58449274564626       57.05079567690640       42.50157252596798
C           55.12748267779359       57.40416844724091       43.88454308403049
C           53.39389751298534       56.08938135353477       42.64557406645554
C           52.05639232017010       56.81976461914656       42.82090948242256
C           50.99365839501949       55.84677900728558       43.32607922453721
C           51.60208788143757       57.47747901455807       41.50219601709727
C           51.58839329218890       59.01327799156868       41.50470504578430
C           50.47872125397265       59.53864285403967       42.40943383612209
C           51.41483108600993       59.49859745482812       40.05872370999558
C           51.51060531936698       61.01151072869963       39.82189575534288
C           51.04522658584738       61.31362984905629       38.39680328087628
C           52.94061021961905       61.52325970815869       40.02948632378480
C           53.04609259931856       63.04396013518443       40.22784864184886
C           54.44047535933102       63.51909664461370       39.82076343441846
C           52.72608460324919       63.40475121537944       41.68444341203880
C           52.63884491520730       64.90603649765480       41.99076549872501
C           52.68819858171530       65.12383240020134       43.50157273652092
C           51.37134662859971       65.53554926493148       41.40193823517782
C           51.42568176811003       67.06271558030407       41.25272241423777
C           50.05757863446165       67.57155726821671       40.79683376386516
C           52.52085235393425       67.49815456651839       40.26064980511747
C           53.80085115237768       68.03591276762300       40.92325225574178
C           53.60176667350664       69.49075310918795       41.34320409264933
C           54.99112460406212       67.88545691310817       39.96655203956128
C           56.37289849962618       68.08552681499870       40.60365147912616
C           57.43962227080357       68.06333524720084       39.50802274082228
C           56.67165074856642       67.02371389776746       41.68099362974858
C           56.83414737831460       67.61125850565925       43.08912220188715
C           58.15473192140688       68.37318935309045       43.19049446134768
C           56.75562450378612       66.51201415985474       44.15709710769757
C           56.46422267761509       67.04419552332361       45.56869791368898
C           56.91346555683646       66.02883258762127       46.61558401094498
C           54.97586447660625       67.38422482914692       45.72494781030972
C           54.66028259855488       68.35515022222553       46.88126836179645
C           54.10217992973814       67.62043570408305       48.09855921175185
C           53.68194073849147       69.42749896380553       46.37843617216517
C           53.18448953293289       70.45565236483598       47.40432605352814
C           52.16111790146660       71.36158642729700       46.71751916325525
C           54.34473914169705       71.26946092257182       47.98685720744626
C           53.99524449327345       72.18596340954331       49.16822605057607
C           55.16743880838100       73.13785680811473       49.41180541653661
C           53.69434294556478       71.37539152682940       50.43523296962098
C           53.05402637118735       72.19303753436570       51.57325883809415
C           53.81542686828060       71.97279397057962       52.88026004624666
C           51.57412769727120       71.84085618816555       51.78206191510467
C           50.65034005704381       72.18866172493099       50.60933352281545
C           50.52324205977543       73.70376153318070       50.44409600840457
C           49.24489253763574       71.60019994559252       50.80917084909774
C           49.11700887679326       70.08021345518110       50.65062120914477
C           49.33894926450088       69.65974996234267       49.19856098948417
C           47.72410857957890       69.61123474611591       51.09917503913244
C           47.49925703654149       69.58712829433418       52.61603538115756
C           48.19481905689370       68.38012798321510       53.24379193206406
C           45.99928493491091       69.53577406042301       52.94268911175465
C           45.24944876959572       70.85764940783885       52.73752185078537
C           45.55471352000533       71.83603615379765       53.87064650668778
C           43.73313806603861       70.63471662316749       52.65702829363326
C           43.26267623624133       69.99036880812318       51.35481705141069
C           41.74247861406290       69.99890316031377       51.24697232447046
H           67.41806476322768       54.27701028891337       51.48357410478597
H           67.81566839794898       55.93193546621914       51.94687383590002
H           66.77746149833632       54.95008941512417       52.98222735751454
H           41.36548758324412       71.01977695344380       51.23569802539271
H           41.41931532630596       69.50555326403088       50.33303324264560
H           41.29778710019684       69.48227092673825       52.09467677333934
H           43.41482486410560       70.01843345045556       53.50150945607284
H           43.23695901664821       71.60434562356637       52.75382922535341
H           45.54814905966995       68.76025791776065       52.32102828122338
H           45.87143056457874       69.23300617149390       53.98532632794048
H           47.92489365750360       70.49338173639005       53.05653860622392
H           47.73538264524630       67.45807817529951       52.89278238879565
H           49.25068999793150       68.35823139711722       52.98667122934471
H           48.11428348348036       68.41270964029279       54.32810295638662
H           46.98403938589361       70.26174278631983       50.62843010363402
H           47.54993593707697       68.60256355108531       50.71699207717363
H           48.89859738366646       71.89150891674238       51.80326981558967
H           48.57059500221900       72.06695108075958       50.08524536627697
H           45.57478309461013       71.31497471959251       51.79646107219494
H           45.08823101950202       72.80101075327121       53.68113436453257
H           45.16968586092504       71.45158571416783       54.81272561984608