3536
 energy: -3716.256726123418 gnorm: 0.000978093239 xtb: 6.6.1 (8d0f1dd)
C           44.71906582691290       55.22448805437244       66.62817996223579
C           45.69437437176425       55.58857548430137       65.50894410623404
C           45.73294292007152       57.10476060776887       65.33993700683133
C           45.27473659650543       54.86624048942529       64.22454788189222
C           46.20488945820313       55.01864699244629       63.01412632198441
C           45.48980987451081       54.48137322864598       61.77526656211207
C           47.53183143056752       54.27749362154594       63.21915567638742
C           48.66127607847832       54.75003005352571       62.29047853471682
C           49.72761670248615       53.66201363255969       62.18261529353856
C           49.25724793276046       56.05942434499804       62.82138706622855
C           50.20396954879794       56.81445182363235       61.87766053793199
C           50.88658175104335       57.93803141802961       62.65814535288911
C           49.44468025264944       57.36393029515141       60.66498558864389
C           50.27775582605420       58.14244742628608       59.63538903478403
C           49.32777646194746       58.73019085275444       58.59196585306472
C           51.33038337981230       57.24222542265619       58.97802369586788
C           52.37182896211154       57.95238694723248       58.10018879189688
C           53.15869829187537       56.90779985873401       57.31164685466474
C           53.31831280180989       58.80649182443118       58.94894119114360
C           54.42389251605232       59.55112969987427       58.18334970696305
C           55.31206981323432       60.25328113888278       59.20887889945033
C           53.81108567006162       60.53251536255262       57.17526720026700
C           54.78527631466496       61.42652785173900       56.39680035431206
C           53.98469269367522       62.46273106954172       55.60730469058147
C           55.67691371125141       60.61824467366835       55.44698478006850
C           56.89335250171494       61.40647925308978       54.92383398653201
C           56.79232601341416       61.62515411953652       53.41308502070869
C           58.22215311183057       60.70253239461282       55.23409641348801
C           58.53099184619009       60.46288573127868       56.71681284312395
C           58.73547443577646       61.77601522194669       57.47177824185507
C           59.79545806217889       59.60633445499609       56.87779479783617
C           59.65937176795581       58.13116752387687       56.47581566337950
C           58.89975167264137       57.35330977024214       57.55035186665180
C           61.04164658332090       57.49339054857906       56.22413774333526
C           61.33530587418347       57.19863731005677       54.74626719187403
C           62.59476080247553       56.34155272405344       54.63052172919369
C           61.48095190856328       58.48143236746689       53.91556392378406
C           61.18191510283596       58.29045414164619       52.42070787559909
C           61.71185288655398       59.49198427473380       51.63839499537198
C           59.67141212650643       58.09089340653134       52.18690992013028
C           59.31548021879817       56.94491687768320       51.22588865167681
C           59.23337783367911       57.45577572432840       49.78791170515402
C           57.99297445070908       56.26202743302317       51.61377350023263
C           58.02494492909649       55.47699846348754       52.93284511052013
C           59.06416719024146       54.35745757834220       52.89236344366959
C           56.65210469881070       54.87316491848229       53.27175430532164
C           55.51392717750145       55.87616670894027       53.49528439384948
C           55.92180450892075       56.98500243804124       54.46627939009772
C           54.25843538640178       55.19180195678513       54.06048857628411
C           53.62556082569498       54.07739164773357       53.21799760149523
C           53.25207763088068       54.57953623588642       51.82364910897099
C           52.36792078552051       53.53375199586882       53.92150549698640
C           52.63904126501940       52.55204328825430       55.06931853430267
C           53.03842421120724       51.18322538774195       54.51831433246094
C           51.40302126702231       52.38904315022706       55.97007179036774
C           51.16227918156361       53.51676240125528       56.98070266789791
C           52.24408702981734       53.51685208592686       58.05958898789856
C           49.80044852142017       53.35371268172830       57.67408608084195
C           48.55902600539754       53.63460656884020       56.82226182087522
C           48.48870519309565       55.10655835713447       56.41796718097672
C           47.26965966040355       53.28471304000227       57.58340011203491
C           47.12609612355740       51.84159968789660       58.08976219883775
C           47.31999211846569       50.83383185582098       56.96215311203439
C           45.74190576702793       51.69440435979708       58.73756920244556
C           45.45834339069130       50.37549181938308       59.47340932409092
C           43.96690501968946       50.31796191543769       59.80213794100463
C           46.31234843778164       50.26076529628978       60.74171876888151
C           46.25076774943059       48.91298400403161       61.47585107027545
C           46.86137076578194       49.07503567825919       62.86692404410867
C           46.96655581065624       47.80402423371258       60.69591526229466
C           46.68437530384639       46.38214992162009       61.22349613652832
C           47.92934597241893       45.77519976728479       61.86936191436669
C           46.18803778551423       45.46594636293294       60.09890702841910
C           44.76177289278270       45.79639061886461       59.62662612743134
C           43.73778366495468       45.04656235746041       60.47500243028535
C           44.63265617358175       45.45314856030468       58.13978540366176
C           43.27533943944209       45.71235033626954       57.46907290587206
C           43.44190999013859       45.42018652023897       55.97915190656941
C           42.78855608751129       47.14701467155490       57.70589549834563
C           41.50690309203516       47.55914319408968       56.96653547672217
C           41.27834679910968       49.05540817924122       57.18070782608618
C           40.27714812458733       46.77565669196441       57.44442954553544
C           39.12249447245105       46.76262795724191       56.42729617262349
C           37.78729721165984       46.64152938552888       57.15964526147710
C           39.31409419510573       45.60996260850267       55.43270035049962
C           38.44960722534921       45.67374156410852       54.16717526447596
C           38.42575717650264       44.29992590810488       53.49544071123396
C           38.88753776647721       46.76933807176206       53.18288655848361
C           40.24650475840212       46.56123521536160       52.51626588339177
C           40.53329867573955       47.66361400811946       51.50341193396913
H           43.70939166987041       55.53586083835951       66.36709178481613
H           44.71167489338348       54.15030487699543       66.80096655464784
H           44.99822544300552       55.71984799284051       67.55551334034077
H           39.77402457236338       47.67289055625182       50.72397754426958
H           40.53511341785671       48.63831815756002       51.98738132327446
H           41.50289743173112       47.51258716109010       51.03446446910811
H           38.12929676513329       46.83696862654918       52.39751022450207
H           38.89715656793638       47.72974354771861       53.70333590664073
H           40.36094447466624       45.56756288015776       55.13099144324939
H           39.09239820322856       44.67439078879115       55.95308100160746
H           39.12419377095173       47.70859083215630       55.87855569493953
H           37.76350512170376       45.73194408216233       57.75698126698128
H           37.64035486501562       47.49253340085931       57.82134208595372
H           36.95573731901387       46.61399540990072       56.46015537953892
H           40.55005966827916       45.74239062412860       57.66233079798784
H           39.93209784745422       47.22038524973594       58.38078036580202
H           42.61567920267403       47.29300957769254       58.77355579105635
H           43.58721828038088       47.83020631504411       57.40396634684408
H           37.42197372433577       45.91271349554467       54.46285280001570
H           39.43599260578681       43.94154318595589       53.31391409322216
H           37.92110880963921       43.57747672358214       54.13357602247689
H           37.89550613861693       44.34513513227756       52.54653750812238
H           41.64408241318088       47.39195331281206       55.89508887849768
H           41.18559256343063       49.27534811284578       58.24305648141539
H           42.10955771488087       49.63376536802678       56.78375324790068
H           40.36741016161509       49.38237792374459       56.68470546578339
H           42.54537531104818       45.00944411454928       57.88136619001033
H           43.91141231226194       44.44938803614920       55.83954174933224
H           42.48370872838345       45.40916228173679       55.46848277913473
H           44.06847161481158       46.17800401486456       55.51374926375692
H           45.38663059929569       46.02814198537291       57.59573472035799
H           44.87779061085006       44.39539986532288       58.00991269610762
H           44.59849630997187       46.87028679323361       59.75064692378391
H           43.81279286579274       43.97535052258934       60.29786368178914
H           43.91197833592525       45.23099795715396       61.53274556384503
H           42.72491037153228       45.36431188437361       60.24078486073159
H           46.88634769891478       45.54387200523976       59.26152475648225
H           46.21100293808026       44.42856940003169       60.44048501552183
H           45.89921929812691       46.43294654544995       61.98497700243597
H           48.70831646447618       45.62974722128953       61.12314427850801
H           48.31436739261082       46.42780111627530       62.64962638629245
H           47.69746231535471       44.80927508468657       62.31562698712582
H           46.66007610499236       47.86052646953404       59.65109632386284
H           48.04076919421196       47.99493293697185       60.72413144416637
H           45.20226333640618       48.62403056172517       61.59801045457505
H           46.32390863272804       49.83008825660593       63.43588755655969
H           46.81633300774647       48.14102071738348       63.42024684806590
H           47.90362535012383       49.38045018317238       62.79073803229218
H           47.35553656046423       50.45651139326618       60.49144750119751
H           45.99098852983738       51.04471372734614       61.43300089870567
H           45.68645474888260       49.54072708544943       58.80547254201009
H           43.69597465012454       51.12117792181980       60.48341596132134
H           43.37496634568680       50.42966476563906       58.89757208706592
H           43.69772751184345       49.37118423223369       60.26197485009696
H           45.60300582019650       52.51153927908216       59.44892962341695
H           44.98882043666377       51.81636621953113       57.95441930459857
H           47.88584938306739       51.66181945423611       58.85324750503966
H           47.17582362597924       49.82027368515837       57.32493416996905
H           46.60615621635939       51.02099798256142       56.16181769312268
H           48.32483609699192       50.90019232894866       56.55467522139350
H           47.18846420960844       53.95671731409691       58.44239116762247
H           46.42407056895566       53.50010253133287       56.92468306428628
H           48.59976643112546       53.03653775965514       55.90816654156928
H           47.59065365417978       55.29293016633179       55.83350536380487
H           48.45894696947997       55.74102135629735       57.30205445752679
H           49.34777011224333       55.39376811425447       55.81798270034963
H           49.75119174092904       52.33058484609044       58.04643900899190
H           49.76858686949201       54.01991105556024       58.54073833725536
H           51.19283390281569       54.47638359387783       56.45861148643775
H           52.05737387743530       54.30223954573417       58.78778637195396
H           52.24695725552905       52.56104471625640       58.57757490254474
H           53.22913438102683       53.68577300598287       57.63517231914520
H           50.52856272104354       52.28977101167688       55.32540963438580
H           51.50147921809938       51.45581907219907       56.53141098712457
H           53.46947895451818       52.93127142447911       55.66949381184691
H           53.27658676963375       50.49993263438157       55.33082196017337
H           52.22253190489526       50.75731579939795       53.93782805998625
H           53.91107669523286       51.26014799619864       53.87564446603208
H           51.79045901277547       54.38095213255399       54.29759674392191
H           51.74352912496946       53.02245571210597       53.18449554875347
H           54.34399855258056       53.26126949523127       53.10388116342924
H           52.56580771830571       55.42176456580195       51.89134998986204
H           54.13322248489278       54.89925031229748       51.27342513706835
H           52.76757245564605       53.78897017431294       51.25376600994060
H           54.50690531167974       54.78957640940981       55.04496682405876
H           53.50295928460532       55.96729688956062       54.21124334695050
H           55.25664859858371       56.34144569811149       52.54101418700239
H           55.06081344453254       57.60618708765134       54.70198846840689
H           56.30254594896548       56.56270040264360       55.39421572149897
H           56.68512510340532       57.62842672169162       54.03747555942744
H           56.36970680759281       54.18899176096426       52.46838561776762
H           56.76238805446155       54.28214500539064       54.18486558631714
H           58.30445424192832       56.14793956438137       53.74873900795243
H           60.06882580928722       54.75499623757263       52.78535138986303
H           59.03826875763428       53.78740625745514       53.81767716151587
H           58.87296050174713       53.67743827755402       52.06504504378792
H           57.21828791519580       57.02949524124390       51.67029236664978
H           57.71131416009739       55.57032969778461       50.81538715798527
H           60.11065517658054       56.19558062730437       51.25949602664952
H           59.05261973495162       56.63526397970817       49.09607347463376
H           58.42763178988231       58.18000295679777       49.67949565072644
H           60.16638788404169       57.93510475545398       49.50133423611182
H           59.19989248014974       57.89569807958326       53.14849805157452
H           59.23757255803700       59.01975263780295       51.81071290892815
H           61.71641933279147       57.40029349837197       52.07317940518267
H           61.23693177422718       60.40799607802238       51.98429133213465
H           62.78749474869490       59.59196394502466       51.77279462623779
H           61.51254370078779       59.38482894754161       50.57486334734171
H           60.80421872893656       59.24718932249549       54.29324003302924
H           62.50025002974142       58.85597023017935       54.03487509764069
H           60.50018055186975       56.61252827758531       54.35245479055929
H           62.46117504354876       55.39101633898791       55.14332455313620
H           62.82405920986783       56.13703883596702       53.58765209023855
H           63.44609273392136       56.85611091821821       55.07384307786818
H           61.82511636344730       58.14116756141816       56.62135127495016
H           61.10040648322992       56.54846778259761       56.76803639311365
H           59.07798660029403       58.06451657682096       55.55201216970792
H           59.45467508461024       57.35726563695754       58.48641167124597
H           57.92167837703892       57.79232658940903       57.73296068914034
H           58.75277383011275       56.32051155267028       57.24051203877764
H           60.59358559573744       60.07111580427603       56.29516071559681
H           60.10137663042017       59.63914719528580       57.92496858412211
H           57.69305300850370       59.93398361516897       57.17711856133489
H           57.86608522325265       62.42300475379930       57.38603958090273
H           58.90428352375086       61.57889099019602       58.52877413083956
H           59.60129245441487       62.30702438689283       57.08218615602864
H           58.21197355284285       59.74200675870559       54.71549902204346
H           59.03431443944226       61.29545675825506       54.80585526637910
H           56.90645163640978       62.39241599254174       55.39777676380650
H           55.85722408293709       62.11845211025086       53.15854998098139
H           57.61252934902835       62.24600242652529       53.05758527807209
H           56.83194119492429       60.67293726438245       52.88695321734893
H           56.02324320623946       59.72130808638311       55.95709042162908
H           55.06624609230802       60.28681315632512       54.60471690626022
H           55.41762401279283       61.96063348566635       57.11125845141645
H           54.64754027301506       63.13327999817928       55.06644924906239
H           53.33505387658661       61.97094259730979       54.88576235252944
H           53.36533353263015       63.06142424190327       56.27056593748276
H           53.22701363081441       59.96702351488344       56.44655228992123
H           53.12030786904423       61.18142610904552       57.71719681600239
H           55.03658744171768       58.81815842908809       57.65186325326263
H           54.73680541762028       60.99425174478796       59.75732330634875
H           55.70420035985334       59.53027963111391       59.92213458767623
H           56.15536995978609       60.74837325253723       58.73784109656798
H           52.73695656368893       59.55020556655086       59.49800042703691
H           53.79432676980983       58.15345422952979       59.68616092713279
H           51.84936576476320       58.59860290352008       57.39155698611094
H           53.78026792921420       56.31602406761554       57.97978160386904
H           52.48690776644165       56.23525784216695       56.78697139329896
H           53.79841122258760       57.37970784252678       56.57339601823345
H           51.87137771268279       56.69863895498689       59.75443434885261
H           50.80483344888643       56.50595060884866       58.36491131180498
H           50.77717600854947       58.97051480659223       60.14395496697944
H           48.78879368122056       57.93654881590265       58.07823394697031
H           48.60066473236331       59.38842735844757       59.06448609925905
H           49.86962684686076       59.30948464721331       57.84895062095116
H           48.96049422416280       56.53561490421539       60.14336155042281
H           48.65276000227301       58.02237180730467       61.03303117603535
H           50.97452913118591       56.11888249221492       61.53841597183770
H           51.36672768682801       57.54341043510824       63.55039499610560
H           51.65077133496903       58.42565394798694       62.05889068527394
H           50.15901744506807       58.68639444580108       62.96569083323330
H           48.44533053909745       56.73668282721754       63.09450079692544
H           49.80517262108023       55.82335486993659       63.73554480086428
H           48.24391836720758       54.91528252451802       61.29386234473198
H           49.28461462454224       52.73014945376122       61.83782822176966
H           50.50467554368344       53.94634927320709       61.47749894923878
H           50.18881205922370       53.48471846303357       63.15233188018489
H           47.86850738994940       54.39625831959929       64.25015475700611
H           47.35491698209820       53.21129530598068       63.05541696770683
H           46.40586526192345       56.08065102160781       62.85194738208681
H           46.12289891191257       54.55865192725508       60.89424440484064
H           45.22706434363912       53.43507855431864       61.91586039597772
H           44.57448554089743       55.03703503223467       61.58776295062228
H           45.18176926974092       53.80070187374450       64.44651976449964
H           44.28133416786040       55.22634766383262       63.94538513436122
H           46.69161196239072       55.24599310453718       65.80411311882374
H           46.00471997872519       57.57903224559252       66.28032539839620
H           46.46148771776493       57.40583392815507       64.59178842943575
H           44.75557531358577       57.47499184653325       65.03738829948490
H           41.03686888229391       46.55546335641756       53.26864315861842
H           40.26687610252632       45.59955918664514       52.00321813017867
C           67.03044938434992       55.17951198576422       51.94933823439658
C           65.79788884356303       55.68427981934020       51.20267274284078
C           65.31407300683625       56.99225925600992       51.82434571850362
C           64.70564634353670       54.60744382483145       51.21671087946446
C           63.58440332136910       54.81599699042791       50.18965349131439
C           62.37137840008093       53.96434615654428       50.55924400365021
C           64.08671418690953       54.46415596250687       48.78421331892168
C           63.25857722097589       54.99858216394245       47.60593303717575
C           63.91707022597672       54.51110602632803       46.31511783130226
C           63.16750471086834       56.52883693995763       47.66917881532679
C           62.63108311805994       57.24800655732909       46.42398438680155
C           62.63827380630352       58.75173424519841       46.69891437895450
C           61.22596578087595       56.75527528581859       46.06072109092842
C           60.54485699653370       57.45942264415414       44.87724618391230
C           59.13059960267394       56.89777296819062       44.73420499678082
C           61.34258349518439       57.28594858922329       43.57852641844458
C           60.91039910391468       58.20127551119681       42.42459725951118
C           61.51994725610435       57.68968343299922       41.11930452185180
C           61.32915773460431       59.65962090069764       42.66261706069628
C           60.42171505898966       60.68575686802730       41.96667993028358
C           61.15643668219312       62.01646636343636       41.81607132774736
C           59.13131887487194       60.87313044315485       42.77556740313970
C           57.98012022276531       61.58458111082128       42.03947679749931
C           57.33704207508574       62.62149972109869       42.96242309875568
C           56.90289365059413       60.60018078965472       41.56185442812178
C           57.29999329150877       59.72677852909327       40.36518462644860
C           57.21548871697210       60.52471932298683       39.06571944533815
C           56.39617567768239       58.48751435100997       40.28239594266333
C           56.82596728265099       57.37422755280786       41.24643402614132
C           57.95607832294510       56.55402731091836       40.62692921315374
C           55.66882289572267       56.43654802392610       41.61005651219406
C           54.58434127615683       57.05102777411236       42.50043583372379
C           55.12723824948004       57.40396201940298       43.88393502401583
C           53.39369820059764       56.08945974899346       42.64462767916753
C           52.05647073118990       56.82076443307298       42.82030874473249
C           50.99362874066014       55.84720484444032       43.32497463877795
C           51.60265095501190       57.47814606463076       41.50126754100650
C           51.58881341584133       59.01404178584408       41.50454146106291
C           50.47848828735933       59.53872358017689       42.40953623516398
C           51.41487812219996       59.49942372480314       40.05853795288579
C           51.51025633782712       61.01259093490589       39.82254311503169
C           51.04538446108659       61.31423471322692       38.39739298947875
C           52.94092521957673       61.52345853874497       40.02952740260771
C           53.04664095023315       63.04425469322113       40.22749773422814
C           54.44120569624076       63.51917685181021       39.82117145085736
C           52.72624541727895       63.40454433732339       41.68436626694522
C           52.63870109307775       64.90608819779156       41.99003860091081
C           52.68802365363328       65.12414095120285       43.50112246485353
C           51.37084544191504       65.53536583412833       41.40178437376299
C           51.42557933156770       67.06274930850263       41.25335641613432
C           50.05755118857456       67.57071902339742       40.79690236090228
C           52.52086621260172       67.49758687347247       40.26124876335022
C           53.80081217766960       68.03506882638735       40.92431384655006
C           53.60140431586848       69.49001756577215       41.34367716865607
C           54.99069494016768       67.88518732416036       39.96699278426665
C           56.37212780161678       68.08623820890479       40.60414826644962
C           57.43872663196178       68.06377264193425       39.50891704235575
C           56.67137732978043       67.02402916601184       41.68108522175493
C           56.83373286693443       67.61235618108687       43.08894761313902
C           58.15471157266986       68.37324155441749       43.19046907482403
C           56.75518479919129       66.51243960436055       44.15652219362797
C           56.46404005456286       67.04506393882566       45.56803095723439
C           56.91355499681321       66.02965538595105       46.61516848128820
C           54.97551535953107       67.38478775204281       45.72451014781190
C           54.66019835336380       68.35621189656541       46.88057591090661
C           54.10272403586726       67.62108441195684       48.09846186423059
C           53.68132039749368       69.42816321206897       46.37802828999371
C           53.18400564306169       70.45513281100637       47.40542291906599
C           52.16126711117199       71.36152867948378       46.71857058253963
C           54.34485866567000       71.26872344498351       47.98755358900829
C           53.99490933839434       72.18561721506585       49.16850408337529
C           55.16739697674248       73.13651807714847       49.41259578777721
C           53.69404798603348       71.37463749121844       50.43561844345994
C           53.05362916389360       72.19298834306284       51.57326420762077
C           53.81525363078419       71.97372116752234       52.88042944897734
C           51.57365621229754       71.84086247411247       51.78253304072980
C           50.65046292047473       72.18842616127534       50.60891735236159
C           50.52310152181377       73.70327490711027       50.44433376972865
C           49.24488168420760       71.60034636072156       50.80922226841187
C           49.11748300390008       70.08019975728401       50.65085822133297
C           49.33836832816054       69.66031716685079       49.19820750151952
C           47.72415349580937       69.61142065215309       51.09900114127890
C           47.49945958268463       69.58794212689168       52.61593055937249
C           48.19570493873142       68.38099318593335       53.24425213861084
C           45.99929620881308       69.53606276021499       52.94256225478143
C           45.24947925235630       70.85828664355643       52.73728337046842
C           45.55475442133328       71.83610891419319       53.87084761990496
C           43.73334387261906       70.63435316322028       52.65698064115367
C           43.26351265823189       69.98955284619923       51.35462716614759
C           41.74327582953369       69.99844865194289       51.24720178257453
H           67.41772868406989       54.27762626458681       51.48243138572371
H           67.81495555673091       55.93281421409232       51.94613803710340
H           66.77765921944345       54.95002898778021       52.98178177470871
H           41.36779013401973       71.01950713992129       51.23603937090911
H           41.42007752731841       69.50551718877396       50.33315227835490
H           41.29817810577647       69.48221496490326       52.09494090494356
H           43.41546983810989       70.01857631667092       53.50188727555415
H           43.23783380420772       71.60370749274119       52.75276921874845
H           45.54921554283541       68.76004099174052       52.32087563253686
H           45.87240896470038       69.23270001927449       53.98514716483447
H           47.92541422083808       70.49327421403684       53.05635004477159
H           47.73602798291080       67.45844583154025       52.89408706667682
H           49.25195191602973       68.35838668886738       52.98723372432983
H           48.11624337696523       68.41410441061264       54.32878519693197
H           46.98465743991137       70.26233406814778       50.62928476599532
H           47.54941423585826       68.60259333476043       50.71735252996241
H           48.89872759754311       71.89122440332844       51.80313734828199
H           48.57128895754137       72.06553264929057       50.08463958202850
H           45.57538187586814       71.31445145412629       51.79673180709574
H           45.08797066055619       72.80021830389448       53.68063933493941
H           45.16948258520673       71.45101897387843       54.81251816731178