3536
 energy: -3716.284675562584 gnorm: 0.000733416446 xtb: 6.6.1 (8d0f1dd)
C           68.56151658248434       53.21781041343885       52.90429091180652
C           68.00873644042342       53.96785609499510       54.11208837089877
C           69.09748063409435       54.12076142621945       55.17289179317561
C           66.79820266008655       53.26502652674489       54.73655649151333
C           65.64510017243384       52.95812342304485       53.77568408651012
C           65.20850691997130       54.20863204997553       53.01285870267555
C           64.42459854712943       52.39763246225954       54.52173373912724
C           64.66797267040836       51.21843551795326       55.47034595409630
C           65.40474968367228       50.07747742561087       54.77281566864423
C           63.33252468130958       50.67288577878732       55.99565216011764
C           62.55499492920934       51.58542713529020       56.95190177511770
C           63.16112783104778       51.53377456044564       58.35120561445534
C           61.08116433603730       51.15632537394615       56.99531618466084
C           60.26841771818115       51.66123326634430       55.79247489479060
C           59.77123907801809       53.08063146067408       56.05643254490572
C           59.11323716489325       50.69655998434899       55.49956119215741
C           58.19110457712963       51.09580545671035       54.34259401413703
C           57.06204190706909       50.07344067925002       54.21098228925288
C           58.89376479907807       51.33868592557081       52.99571266105303
C           59.44149942725916       50.12147746611714       52.23421649377445
C           60.87273571774212       49.77472208883899       52.64158479727072
C           59.40285782929039       50.39630229362215       50.72231248563131
C           58.00421861410069       50.28543297980095       50.10261122064878
C           57.64739431664267       48.81904974383011       49.85640322634652
C           57.90281299672340       51.07578265788742       48.78998023849562
C           57.88483337219246       52.60428118927313       48.93216115653977
C           56.65159207440293       53.07234014055786       49.70151161784356
C           57.91238503817490       53.25405292311611       47.54007790661774
C           58.34353382721640       54.72822773835249       47.55209315929030
C           57.86573310930584       55.41365821371156       46.27264770437854
C           59.86795508302002       54.87165474219271       47.71917619341944
C           60.30265633532652       55.87233857749320       48.80063256923128
C           59.80939767657191       57.28277021744388       48.49510632680479
C           61.83199823468959       55.83281282452830       48.91848372102368
C           62.46404775358553       56.69010811478882       50.02490011470510
C           63.98465594980529       56.60192438835605       49.91067518067618
C           61.98108831520320       56.23932364947175       51.40624255166672
C           62.56828993160209       56.96926607225657       52.62374627046053
C           61.98788127626478       56.32925459432652       53.88428022144795
C           62.25264479734500       58.46721650882765       52.57102866894354
C           62.83032982260228       59.33800952672171       53.69888759117585
C           62.22173862513578       60.73309745118328       53.57683888535896
C           64.36218789046183       59.38327239974338       53.63260565291938
C           65.06449347071730       60.33586055366980       54.61363467331584
C           66.54166306158420       60.43934634350211       54.23308799029708
C           64.91597112460060       59.86963823901586       56.06629945597076
C           65.27898913169172       60.93075961238704       57.11518772579009
C           65.48585276950195       60.25724908024110       58.47131153449652
C           64.20740170133811       62.03598937698581       57.20293412672894
C           64.76545793280778       63.45346669021945       57.03762726845326
C           65.63781298239316       63.82971109769308       58.23489103677277
C           63.66154845176001       64.51067452597412       56.89252582690597
C           62.69906989462632       64.36310789105275       55.70540756997986
C           63.44343241894988       64.38769238003532       54.37502086166592
C           61.66639118799770       65.49592298767607       55.77865995850953
C           60.49497736177628       65.43084552953361       54.78839142569610
C           59.72560348630935       66.74935224763777       54.86616332009836
C           59.55309667835936       64.26275479970367       55.09619228015166
C           58.59261659321107       63.89751375017055       53.95202385354917
C           57.36543367402929       63.20737268067087       54.54007355520496
C           59.29661111419793       62.99554439595087       52.93340459616627
C           58.48503820014013       62.62511558269394       51.68566714441397
C           59.17627842426688       61.47297343140151       50.95653682419956
C           58.29456459700201       63.81365233104386       50.73680207546237
C           57.15464531953018       63.59828273234742       49.72270175610957
C           57.67105589409419       63.69240689469760       48.28870424964597
C           56.01118383657258       64.60238585045512       49.91766717112642
C           55.26196347153944       64.47112658749948       51.24846763733893
C           54.37645015432140       63.22545958171581       51.24790894485973
C           54.38330668650359       65.70009931511532       51.52138740017952
C           55.13127415635050       66.98853742508915       51.89674514369686
C           55.63976468040959       66.91550835039750       53.33404239564689
C           54.18048812244613       68.17789570937603       51.69837595543445
C           54.71056783609400       69.57059068112984       52.06697724880873
C           53.54430423939075       70.55895311050207       52.02321029547235
C           55.82716855640465       70.00115089360321       51.11094749907260
C           56.58599171064943       71.27889129866163       51.50050570076468
C           57.34104342302404       71.79648619577986       50.27677443980534
C           57.53569190203911       70.99846006588770       52.67133479266954
C           58.30334607415571       72.20305790158838       53.23619957074042
C           59.31940618142273       71.70280964967885       54.26224756971741
C           57.34186663340852       73.21967612455354       53.86193717850732
C           57.97539626596556       74.48916394256877       54.45100083851910
C           56.87791074885344       75.30888543363874       55.13030461809283
C           58.68593005699224       75.29984374832125       53.36104848847629
C           59.34632801245395       76.60884624833031       53.81284898409966
C           59.96092258996938       77.30646929323844       52.59774755098508
C           60.38121144984304       76.42746965377434       54.93317412691485
C           61.54922960844664       75.49871007104801       54.60807207168312
C           62.52832013853642       75.41754052500077       55.77321312357054
H           68.78768719399548       52.18537132598974       53.16273019615108
H           67.85329833128093       53.21403251736859       52.08168261649273
H           69.47637541424432       53.69207461852162       52.55444712937831
H           62.02776820117527       75.05220726481855       56.66760209085214
H           63.34780101033136       74.74255152790421       55.53883166703306
H           62.94262148926617       76.39903327517111       55.99439083113053
H           60.78287522674037       77.41354262062704       55.18413280257078
H           59.87616967316851       76.05322146842336       55.82661168990338
H           59.45200854591792       74.67798388042853       52.89612949566230
H           57.95397722568250       75.54416288089352       52.58530386009303
H           58.70099909686662       74.19946230258682       55.21506177513704
H           57.29308576337037       76.15269093375807       55.67498208799248
H           56.17218719140199       75.68753494805232       54.39311306298889
H           56.33075065662856       74.69082923009931       55.83916925099712
H           56.61539190041947       73.53309022443133       53.10910151246002
H           56.78925714571848       72.71334503964255       54.65827942779040
H           56.96494393718941       70.55160369585701       53.48751452897009
H           58.26632640786286       70.25583266634085       52.34060356624018
H           58.56774835213454       77.27247129289458       54.20615549726746
H           60.46518872844778       78.22319622364095       52.89578060911729
H           60.68166010278741       76.66157684429676       52.10077302658614
H           59.18669168321205       77.56228054766143       51.87729647510073
H           58.85252759253895       72.67905931935049       52.41968426510110
H           59.98447568547237       72.50273505895669       54.57836182734795
H           58.80844553244113       71.31311096154711       55.13965557109545
H           59.93010199721085       70.91012460324870       53.83546473140976
H           55.86169627327737       72.04229034160528       51.79586565904172
H           57.84996137882843       72.73298967826759       50.49093163649390
H           58.07750361567982       71.06482738525020       49.95002619804474
H           56.65170694876320       71.97630304955166       49.45365837796383
H           56.55711185928411       69.19378730508748       51.02560802194453
H           55.38038790349736       70.14831082519349       50.12377512067400
H           55.09403920556879       69.54370255805071       53.09019582055780
H           53.85661849140123       71.55864787089017       52.31469216281281
H           53.12824303159271       70.61191220917136       51.01911654296112
H           52.75378402474820       70.24582556614315       52.70276554751136
H           53.86901178575391       68.20219613094521       50.64989511817209
H           53.28580946191531       67.99262915779353       52.29669100575853
H           55.99103571224855       67.10480933350398       51.22964142046606
H           56.33209676257558       67.72719533602138       53.54237696483796
H           54.80938544910587       66.97774054757977       54.03456784575090
H           56.15873991056966       65.97706519276929       53.50975885740336
H           53.77298794002724       65.88206913933183       50.63391971770682
H           53.70026067665807       65.46050112367972       52.34084296570793
H           55.99037024190143       64.37459870153926       52.05692524250811
H           54.95818811373613       62.32871186671529       51.05235873333158
H           53.88418603846269       63.10390730719789       52.21163141620140
H           53.60747479149720       63.31070009474622       50.48182009534481
H           56.42732398883522       65.60814633953413       49.82936626274585
H           55.29114885540940       64.47672573118227       49.10608066109565
H           56.74992220180403       62.59023630933036       49.85725274963220
H           56.87392943678321       63.47659038198945       47.58178383984988
H           58.05031947054481       64.69121463005335       48.08374454401413
H           58.47391796786733       62.97748135713297       48.12122741601856
H           58.09533999699066       64.71489118055440       51.31650390054651
H           59.23321340529324       63.98617662488235       50.20575892803086
H           57.49789334582018       62.27515995084180       52.00171724295320
H           60.19627438718171       61.74852077564799       50.69491107586181
H           59.21646117195873       60.58449415258136       51.58442376048242
H           58.64764582027071       61.21731078393047       50.04125115737302
H           60.22744822733711       63.47044574751585       52.61420917582549
H           59.56277954624690       62.07062614834018       53.44958408741132
H           58.26903326119712       64.81653134905959       53.45428626380415
H           56.87050663503066       63.86718841301902       55.24875028659307
H           56.64206781899757       62.94160150950312       53.77405333766350
H           57.66469159455255       62.29920421234362       55.05925092545528
H           60.13192424611551       63.37341958758493       55.34932956473038
H           58.97114341713102       64.52884331622536       55.98241286935814
H           60.88630791533226       65.31992010218832       53.77365759358109
H           58.84513067759385       66.73353122692190       54.22910784769819
H           59.40040001819401       66.93028839619325       55.88786876293811
H           60.34931252613009       67.58525695297374       54.55740485244643
H           61.25023403312876       65.52351640070601       56.78899560086907
H           62.19583559654320       66.43929950142292       55.62202875130855
H           62.17286413329580       63.40855778876146       55.79579774122539
H           62.74665906216133       64.27940864497074       53.54883848626362
H           63.98093856156724       65.32615129111709       54.25643199494976
H           64.15772793883824       63.57151854784950       54.30809340978426
H           63.07399190048928       64.51382907320526       57.81483407376683
H           64.14354823371642       65.48995851889873       56.81668512973263
H           65.39279777213977       63.47701061780783       56.13967514509925
H           66.05476528977090       64.82603689944732       58.10482251694336
H           65.04938763447655       63.82355639620229       59.15077665883089
H           66.45979856966748       63.12896272007950       58.35661298991416
H           63.46020411822580       61.86232695255055       56.42936640925130
H           63.69290636589099       61.97468016144246       58.16479691457877
H           66.23040417352020       61.38670595819438       56.82259997068280
H           66.30064518014078       59.53666880468127       58.42208795036390
H           65.72689411057419       60.99259613758801       59.23501215163991
H           64.58243523005119       59.73369591416845       58.77634352146926
H           63.88649370248375       59.55429771916075       56.24698073013545
H           65.55560716909417       58.99598466162969       56.21145996532221
H           64.62768199875619       61.33259937860014       54.51005739534762
H           67.03432823643151       59.47576571210169       54.34374228822649
H           66.64947294634693       60.76211442403050       53.20008347502017
H           67.05898902639356       61.16216829766894       54.85874642253984
H           64.75454614818872       58.37753723685874       53.79734457396309
H           64.64052485110911       59.68231006187739       52.61716449182675
H           62.52142775690147       58.91836967015310       54.66082944653905
H           61.13969948521160       60.66005551286568       53.50531684643262
H           62.45544946035665       61.35211712380190       54.43743583885568
H           62.58466384681969       61.23625036464612       52.68298600713936
H           62.61236413304797       58.87578361006845       51.62450468544488
H           61.16373778249446       58.57745147212344       52.57750579573700
H           63.65170615502505       56.82626128997241       52.63222201576151
H           60.91277254686945       56.48788810924771       53.93337404467648
H           62.17557566381944       55.25790924768715       53.88836605236907
H           62.43467274634261       56.75077202059279       54.77863144624519
H           60.89700051832754       56.35107433872764       51.44551926248361
H           62.20174084119971       55.17341110377980       51.51144073748024
H           62.17216375597886       57.73039294859451       49.85973584438332
H           64.46748118141770       57.30556739271825       50.58300749747162
H           64.32920958493884       55.60063377353163       50.16143023115985
H           64.30023757461599       56.83009226910416       48.89458363402345
H           62.13691309706786       54.79432554152355       49.07561357517746
H           62.25100307149734       56.15151460160854       47.95980542633969
H           59.86084684003353       55.54778232662884       49.74856796569316
H           60.24286812915474       57.64498400396248       47.56466976903450
H           58.72778674221416       57.29910500576398       48.39973779153808
H           60.08096614505477       57.96905623816900       49.29324044204069
H           60.29409800419523       53.89915925031860       47.97624596119291
H           60.30909730910518       55.16900799122310       46.76498424478437
H           57.85355912773637       55.21888039683146       48.39887494711013
H           58.21656210597758       56.44119787348741       46.22755165162202
H           58.24217984357151       54.88716768439568       45.39773562744484
H           56.77883766590197       55.42101997038021       46.22338729453757
H           58.59211970227806       52.70095138861942       46.88682993118449
H           56.91338675080902       53.17316993524113       47.10465948966999
H           58.77924681801397       52.92255155362231       49.47815695467833
H           55.74892902917200       52.65444777585525       49.26206603629549
H           56.69567076195178       52.77306672185211       50.74513386344943
H           56.57136137743479       54.15635546864375       49.67241800710312
H           58.74509725352556       50.79252941298651       48.15225598950676
H           56.98728725726642       50.77847873685516       48.27014780734683
H           57.26863110794626       50.68434734863349       50.80438525599251
H           58.31108592558034       48.37740880907892       49.11493446790388
H           57.73137476068438       48.24112962260180       50.77434060173113
H           56.62556888578634       48.72309448505337       49.49505163460346
H           59.80650707405086       51.39585804561851       50.54938632410402
H           60.06136302789119       49.69002521928357       50.21203846172706
H           58.81217225909326       49.25229750791480       52.44002106718497
H           61.53967893268030       50.60918137744406       52.43294393387724
H           60.93762303420004       49.53400229916498       53.69830542842352
H           61.22630115442631       48.91131712133411       52.07877715354825
H           58.15722455000314       51.82943843897846       52.35508246365291
H           59.70417297733865       52.05630328488125       53.13642237354695
H           57.72481331250273       52.05010782468488       54.61417361085515
H           56.43714154470733       50.07872603753442       55.10061919748365
H           56.43470023895892       50.30890143595191       53.35398536562501
H           57.45131444016315       49.06611334730805       54.08885784653986
H           59.52195545283555       49.70223783957713       55.30479057808262
H           58.49881263039664       50.61860209633484       56.40143063620318
H           60.92911795157824       51.68854622312755       54.92177932708165
H           59.33844282551279       53.51993066543899       55.16155441353337
H           59.01568508388112       53.07948769453925       56.84006431569096
H           60.59361988349231       53.71729700794716       56.37354335622450
H           61.04390205252247       50.06471179815237       57.03777244298116
H           60.61767498263270       51.52992144178820       57.91167521424644
H           62.60143953867441       52.61797957358590       56.59301771113296
H           64.20842309964296       51.82707160820323       58.33449466652210
H           62.63281811898788       52.20007643457802       59.02930431212918
H           63.09252607055085       50.52232724729099       58.74643614902483
H           62.70730440177579       50.43980027099907       55.13132936688786
H           63.52256437741006       49.72926312547889       56.51463119911266
H           65.27176508177628       51.55843216895131       56.31775706325062
H           64.82622436824057       49.73048290823174       53.91963779487994
H           66.38751075271095       50.38249218119979       54.42292804477217
H           65.53611279587427       49.24238651984912       55.45761034916580
H           63.97647918100820       53.21484415234586       55.09131281738977
H           63.68799801373175       52.08535454943183       53.77465233873601
H           65.97745788927764       52.21131536916489       53.04772862134278
H           65.01251199972643       55.02516323607038       53.70346028347564
H           65.96874071656212       54.53033680847037       52.30727348487905
H           64.29757492113909       54.01217156954807       52.45261545083601
H           67.14774414283211       52.33264023535519       55.18493761591981
H           66.41983114283904       53.89303478231005       55.54634508000274
H           67.70937223074736       54.96895449583406       53.78870803639428
H           68.69678287391365       54.60976129810263       56.05856904962244
H           69.48766092393841       53.14853391098123       55.46960518610047
H           69.92474310954162       54.71936613815815       54.79321878327354
H           61.17486582690755       74.49783436409379       54.38804181083560
H           62.07767349814088       75.85908925879657       53.72417373775114
C           71.91182966227245       49.33872027905913       67.46032896674208
C           70.73950055357149       50.28251274789670       67.20102765360505
C           69.75367480373461       50.20977988718421       68.36713905461592
C           70.01165613437435       49.94639120266246       65.89330729699985
C           70.84265047715262       50.07360981469031       64.61091371055599
C           71.28864726021547       51.51848562066213       64.38375495788002
C           70.03784202437532       49.59283832622269       63.39272368649390
C           69.78217600497399       48.08373193711648       63.30008531876790
C           71.09272761016673       47.29627107542545       63.24486136930448
C           68.96124764635620       47.73865844382775       62.04706898277571
C           67.52727792798436       48.28010337563211       61.97482436757564
C           66.68979509330481       47.80747423616795       63.16238188831461
C           66.86351828949624       47.83123943113502       60.66031813118458
C           67.28257164933503       48.63549953147849       59.42327602565666
C           66.61624425437269       50.01123766185803       59.43281116197046
C           66.89747692194315       47.92964481102246       58.11382975642525
C           67.58750976122109       46.59567586715202       57.80450765848691
C           69.10960172434075       46.72544203652458       57.83575466413345
C           67.16494171296982       46.07493636630937       56.41989997656820
C           65.70939443312675       45.61252052309939       56.28043960805483
C           65.43628588943271       44.40017206151411       57.16629128718947
C           65.39926509420928       45.24374356276817       54.81994041091713
C           64.99777611950492       46.41439457469750       53.91100469358228
C           63.57508755032387       46.86861185858629       54.22821779290218
C           65.11639351630404       45.97079876125525       52.44622440365089
C           64.90951950373992       47.05215660266595       51.37442833091014
C           64.76696119588259       46.37624802288929       50.01150272717106
C           66.07842112237863       48.04330946849447       51.37836106662507
C           66.01403925243234       49.21972036581132       50.38884857531234
C           67.25126545062959       50.08842503139134       50.61671521445376
C           64.72523967267357       50.02678333540064       50.57779658609368
C           64.56487970612066       51.31154591736306       49.74914932819543
C           63.31029470562643       52.02749444522163       50.25169740880271
C           64.45524939446153       51.00283227153349       48.25079448319310
C           64.37637387695275       52.23711390892867       47.33565584226665
C           63.65122966216052       51.87393898028508       46.03961680225763
C           65.76713477992242       52.83132522175215       47.04150712771694
C           65.83717164909517       54.35436782473469       47.19919229332749
C           64.87632813138322       55.06808634480351       46.24894003652852
C           67.24665437848621       54.89720298872322       46.92766564082322
C           68.38980918499551       54.35208766117670       47.79165081231775
C           68.03496293872477       54.38179420225348       49.27695862471572
C           69.66704257202362       55.18230552238163       47.57869426038105
C           70.14161668172697       55.33433313275973       46.12992263282713
C           70.46016455533810       53.97952800503815       45.50292943893923
C           71.37831100641134       56.24547956287145       46.06125314844682
C           71.48726320029074       56.99516211259458       44.72388464276330
C           72.94189770328073       57.38840289728393       44.46618782112120
C           70.56856205238221       58.23357623741283       44.70629178711140
C           69.71196644492709       58.39767036110870       43.44462021984071
C           70.55945380738505       58.45083849288966       42.17353193258928
C           68.87333258114332       59.68506596833031       43.50439789005090
C           67.91685303823941       59.84514387872590       44.69198489857524
C           66.95542485127362       58.66214918826753       44.79816793073758
C           67.09637038848085       61.13944330618902       44.56000244585757
C           67.88713816884494       62.45262808690707       44.52748274182638
C           68.74077970650384       62.62395125869863       45.78414079639429
C           66.94818165156455       63.66485465877449       44.41256842559095
C           66.10666419018428       63.77654892021057       43.13423263361558
C           66.98313902761411       63.73581259983700       41.88262137836286
C           65.30395196281997       65.08916516248539       43.14012930702359
C           64.08796515259141       65.12373453716526       44.07782781945345
C           62.95324131718449       64.27994424830645       43.50588381501792
C           63.62892812741686       66.57524793982081       44.27041334070047
C           62.53154440608148       66.78832266871403       45.32254926610622
C           61.99840371697897       68.21729433861069       45.20738839631881
C           63.03470993604991       66.51866550018252       46.75267781006380
C           62.61891590927718       65.16979150011367       47.36069438836270
C           61.11345504928705       65.13324930520406       47.60599469856545
C           63.39184335403552       64.95679059794874       48.66982101848052
C           63.32071798560835       63.55032797487426       49.28106474734241
C           64.02305879632527       63.57006053881536       50.63820573048035
C           63.94483914285294       62.49015121026409       48.35535674210993
C           62.90625626307892       61.62557616547252       47.62047543205956
C           62.45872871069004       60.46918303581538       48.51020884562919
C           63.48543159398756       61.12302864757391       46.29500868512481
C           62.51938903039228       60.38417758017750       45.35472215607544
C           63.27696048747066       60.08117236678572       44.06232327167138
C           61.25144725261057       61.22068973119708       45.12094542776420
C           60.42236354892645       60.90292369901696       43.86905634368880
C           59.27978543908922       61.91313621927353       43.77215492068455
C           59.88558922035050       59.46889743212959       43.90349251127075
C           59.23535861295332       58.95430949419521       42.61009517821117
C           58.60847082493110       57.59200103374353       42.90536699338215
C           60.25486738675812       58.84285447049792       41.46941575630127
C           59.65145194443294       58.47763281260727       40.09878709356115
C           60.32900969871539       57.23219893999333       39.52824128037759
C           59.76874384179602       59.62447195631678       39.08765135749852
C           58.91776963279930       60.83966857567192       39.44442347080576
C           59.02201278624826       61.93209709395820       38.38719061679721
H           72.68560993498878       49.45309579396743       66.70558158068688
H           72.35780767289232       49.54776347441507       68.43079258967551
H           71.57378411465777       48.30411664239640       67.45554168355704
H           60.04918884001808       62.27993593109729       38.29290762996850
H           58.70088901680999       61.55978844432209       37.41588341097564
H           58.39664741858573       62.78317239059199       38.64766502375399
H           60.81602293812433       59.92613800082434       39.00071440180442
H           59.45517502743913       59.25858486938458       38.10531995359506
H           60.79004800665382       59.78781031491572       41.37399649097063
H           60.99122099483771       58.08689200500721       41.75109312164100
H           58.43981982832982       59.64126194289165       42.30434297210969
H           59.36636139236487       56.89600521304681       43.26097549159650
H           57.84554841958452       57.68258167397497       43.67604430321890
H           58.14982751906391       57.16872496026674       42.01631280973469
H           60.69812071990346       58.78711828636087       44.16002179210442
H           59.14740115450157       59.40646972241470       44.70687916926219
H           60.60095049837076       61.11763230988868       45.99290309335056
H           61.54791086056128       62.26937853931281       45.05635737242800
H           58.58554174735103       58.25780186768832       40.21931167343297
H           61.37565595963145       57.43597390468666       39.31288221341623
H           60.27781709287729       56.40919110264338       40.23745247597981