      -----------------------------------------------------------      
     |                   =====================                   |     
     |                           x T B                           |     
     |                   =====================                   |     
     |                         S. Grimme                         |     
     |          Mulliken Center for Theoretical Chemistry        |     
     |                    University of Bonn                     |     
      -----------------------------------------------------------      

   * xtb version 6.6.1 (8d0f1dd) compiled by 'stahn@M-Bot' on 2023-08-01

   xtb is free software: you can redistribute it and/or modify it under
   the terms of the GNU Lesser General Public License as published by
   the Free Software Foundation, either version 3 of the License, or
   (at your option) any later version.
   
   xtb is distributed in the hope that it will be useful,
   but WITHOUT ANY WARRANTY; without even the implied warranty of
   MERCHANTABILITY or FITNESS FOR A PARTICULAR PURPOSE.  See the
   GNU Lesser General Public License for more details.
   
   Cite this work as:
   * C. Bannwarth, E. Caldeweyher, S. Ehlert, A. Hansen, P. Pracht,
     J. Seibert, S. Spicher, S. Grimme, WIREs Comput. Mol. Sci., 2020, 11,
     e01493. DOI: 10.1002/wcms.1493
   
   for GFN2-xTB:
   * C. Bannwarth, S. Ehlert and S. Grimme., J. Chem. Theory Comput., 2019,
     15, 1652-1671. DOI: 10.1021/acs.jctc.8b01176
   for GFN1-xTB:
   * S. Grimme, C. Bannwarth, P. Shushkov, J. Chem. Theory Comput., 2017,
     13, 1989-2009. DOI: 10.1021/acs.jctc.7b00118
   for GFN0-xTB:
   * P. Pracht, E. Caldeweyher, S. Ehlert, S. Grimme, ChemRxiv, 2019, preprint.
     DOI: 10.26434/chemrxiv.8326202.v1
   for GFN-FF:
   * S. Spicher and S. Grimme, Angew. Chem. Int. Ed., 2020, 59, 15665-15673.
     DOI: 10.1002/anie.202004239
   
   for ALPB and GBSA implicit solvation:
   * S. Ehlert, M. Stahn, S. Spicher, S. Grimme, J. Chem. Theory Comput.,
     2021, 17, 4250-4261. DOI: 10.1021/acs.jctc.1c00471
   
   for DFT-D4:
   * E. Caldeweyher, C. Bannwarth and S. Grimme, J. Chem. Phys., 2017,
     147, 034112. DOI: 10.1063/1.4993215
   * E. Caldeweyher, S. Ehlert, A. Hansen, H. Neugebauer, S. Spicher,
     C. Bannwarth and S. Grimme, J. Chem. Phys., 2019, 150, 154122.
     DOI: 10.1063/1.5090222
   * E. Caldeweyher, J.-M. Mewes, S. Ehlert and S. Grimme, Phys. Chem. Chem. Phys.
     2020, 22, 8499-8512. DOI: 10.1039/D0CP00502A
   
   for sTDA-xTB:
   * S. Grimme and C. Bannwarth, J. Chem. Phys., 2016, 145, 054103.
     DOI: 10.1063/1.4959605
   
   in the mass-spec context:
   * V. Asgeirsson, C. Bauer and S. Grimme, Chem. Sci., 2017, 8, 4879.
     DOI: 10.1039/c7sc00601b
   * J. Koopman and S. Grimme, ACS Omega 2019, 4, 12, 15120-15133.
     DOI: 10.1021/acsomega.9b02011
   
   for metadynamics refer to:
   * S. Grimme, J. Chem. Theory Comput., 2019, 155, 2847-2862
     DOI: 10.1021/acs.jctc.9b00143
   
   for SPH calculations refer to:
   * S. Spicher and S. Grimme, J. Chem. Theory Comput., 2021, 17, 1701-1714
     DOI: 10.1021/acs.jctc.0c01306
   
   with help from (in alphabetical order)
   P. Atkinson, C. Bannwarth, F. Bohle, G. Brandenburg, E. Caldeweyher
   M. Checinski, S. Dohm, S. Ehlert, S. Ehrlich, I. Gerasimov, C. Hölzer
   A. Katbashev, J. Koopman, C. Lavigne, S. Lehtola, F. März, M. Müller,
   F. Musil, H. Neugebauer, J. Pisarek, C. Plett, P. Pracht, F. Pultar,
   J. Seibert, P. Shushkov, S. Spicher, M. Stahn, M. Steiner, T. Strunk,
   J. Stückrath, T. Rose, and J. Unsleber
   
 * started run on 2024/10/04 at 14:12:37.786     

           -------------------------------------------------
          |                Calculation Setup                |
           -------------------------------------------------

          program call               : /home/abt-grimme/AK-bin/xtb input.xyz --input input.inp --opt
          hostname                   : boar020.thch.uni-bonn.de
          coordinate file            : input.xyz
          omp threads                :                     8

   ID    Z sym.   atoms
    1    6 C      1-90, 273-362, 545-634, 817-906, 1089-1178, 1361-1450,
                  1633-1722, 1905-1994, 2177-2266, 2449-2538, 2721-2810,
                  2993-3082, 3265-3354
    2    1 H      91-272, 363-544, 635-816, 907-1088, 1179-1360, 1451-1632,
                  1723-1904, 1995-2176, 2267-2448, 2539-2720, 2811-2992,
                  3083-3264, 3355-3536

molecular fragmentation (1/2 indicates fragments):
111111111111111111111111111111111111111111111111111111111111111111111111
111111111111111111111111111111111111111111111111111111111111111111111111
111111111111111111111111111111111111111111111111111111111111111111111111
111111111111111111111111111111111111111111111111111111112222222222222222
222222222222222222222222222222222222222222222222222222222222222222222222
222222222222222222222222222222222222222222222222222222222222222222222222
222222222222222222222222222222222222222222222222222222222222222222222222
222222222222222222222222222222222222222222222222222222222222222222222222
222222222222222222222222222222222222222222222222222222222222222222222222
222222222222222222222222222222222222222222222222222222222222222222222222
222222222222222222222222222222222222222222222222222222222222222222222222
222222222222222222222222222222222222222222222222222222222222222222222222
222222222222222222222222222222222222222222222222222222222222222222222222
222222222222222222222222222222222222222222222222222222222222222222222222
222222222222222222222222222222222222222222222222222222222222222222222222
222222222222222222222222222222222222222222222222222222222222222222222222
222222222222222222222222222222222222222222222222222222222222222222222222
222222222222222222222222222222222222222222222222222222222222222222222222
222222222222222222222222222222222222222222222222222222222222222222222222
222222222222222222222222222222222222222222222222222222222222222222222222
222222222222222222222222222222222222222222222222222222222222222222222222
222222222222222222222222222222222222222222222222222222222222222222222222
222222222222222222222222222222222222222222222222222222222222222222222222
222222222222222222222222222222222222222222222222222222222222222222222222
222222222222222222222222222222222222222222222222222222222222222222222222
222222222222222222222222222222222222222222222222222222222222222222222222
222222222222222222222222222222222222222222222222222222222222222222222222
222222222222222222222222222222222222222222222222222222222222222222222222
222222222222222222222222222222222222222222222222222222222222222222222222
222222222222222222222222222222222222222222222222222222222222222222222222
222222222222222222222222222222222222222222222222222222222222222222222222
222222222222222222222222222222222222222222222222222222222222222222222222
222222222222222222222222222222222222222222222222222222222222222222222222
222222222222222222222222222222222222222222222222222222222222222222222222
222222222222222222222222222222222222222222222222222222222222222222222222
222222222222222222222222222222222222222222222222222222222222222222222222
222222222222222222222222222222222222222222222222222222222222222222222222
222222222222222222222222222222222222222222222222222222222222222222222222
222222222222222222222222222222222222222222222222222222222222222222222222
222222222222222222222222222222222222222222222222222222222222222222222222
222222222222222222222222222222222222222222222222222222222222222222222222
222222222222222222222222222222222222222222222222222222222222222222222222
222222222222222222222222222222222222222222222222222222222222222222222222
222222222222222222222222222222222222222222222222222222222222222222222222
222222222222222222222222222222222222222222222222222222222222222222222222
222222222222222222222222222222222222222222222222222222222222222222222222
222222222222222222222222222222222222222222222222222222222222222222222222
222222222222222222222222222222222222222222222222222222222222222222222222
222222222222222222222222222222222222222222222222222222222222222222222222
22222222
# atoms in fragment 1/2:   272  3264
 fragment masses (1/2) :     1264.41    15172.94
CMA distance (Bohr)    :  13.256
constraining FC (au)   :  0.0500

           -------------------------------------------------
          |                 G F N 2 - x T B                 |
           -------------------------------------------------

        Reference                      10.1021/acs.jctc.8b01176
      * Hamiltonian:
        H0-scaling (s, p, d)           1.850000    2.230000    2.230000
        zeta-weighting                 0.500000
      * Dispersion:
        s8                             2.700000
        a1                             0.520000
        a2                             5.000000
        s9                             5.000000
      * Repulsion:
        kExp                           1.500000    1.000000
        rExp                           1.000000
      * Coulomb:
        alpha                          2.000000
        third order                    shell-resolved
        anisotropic                    true
        a3                             3.000000
        a5                             4.000000
        cn-shift                       1.200000
        cn-exp                         4.000000
        max-rad                        5.000000


          ...................................................
          :                      SETUP                      :
          :.................................................:
          :  # basis functions                7046          :
          :  # atomic orbitals                7046          :
          :  # shells                         4706          :
          :  # electrons                      7046          :
          :  max. iterations                   250          :
          :  Hamiltonian                  GFN2-xTB          :
          :  restarted?                      false          :
          :  GBSA solvation                  false          :
          :  PC potential                    false          :
          :  electronic temp.          300.0000000     K    :
          :  accuracy                    1.0000000          :
          :  -> integral cutoff          0.2500000E+02      :
          :  -> integral neglect         0.1000000E-07      :
          :  -> SCF convergence          0.1000000E-05 Eh   :
          :  -> wf. convergence          0.1000000E-03 e    :
          :  Broyden damping             0.4000000          :
          ...................................................

 iter      E             dE          RMSdq      gap      omega  full diag
   1  -3766.7347679 -0.376673E+04  0.227E+00   11.54       0.0  T
   2  -3771.7949869 -0.506022E+01  0.126E+00   11.52       1.0  T
   3  -3772.0074799 -0.212493E+00  0.559E-01   11.45       1.0  T
   4  -3772.0293319 -0.218520E-01  0.143E-01   11.47       1.0  T
   5  -3772.0491409 -0.198090E-01  0.512E-02   11.47       1.0  T
   6  -3772.0491628 -0.219011E-04  0.728E-03   11.47       1.0  T
   7  -3772.0491953 -0.325039E-04  0.154E-03   11.47       1.1  T
   8  -3772.0491973 -0.194991E-05  0.546E-04   11.47       3.1  T
   9  -3772.0491974 -0.989539E-07  0.185E-04   11.47       9.1  T
  10  -3772.0491974 -0.149334E-07  0.706E-05   11.47      23.8  T

   *** convergence criteria satisfied after 10 iterations ***

         #    Occupation            Energy/Eh            Energy/eV
      -------------------------------------------------------------
         1        2.0000           -0.6264488             -17.0465
       ...           ...                  ...                  ...
      3517        2.0000           -0.3954966             -10.7620
      3518        2.0000           -0.3954498             -10.7607
      3519        2.0000           -0.3954394             -10.7605
      3520        2.0000           -0.3950958             -10.7511
      3521        2.0000           -0.3948522             -10.7445
      3522        2.0000           -0.3945384             -10.7359
      3523        2.0000           -0.3932042             -10.6996 (HOMO)
      3524                          0.0284297               0.7736 (LUMO)
      3525                          0.0291874               0.7942
      3526                          0.0293577               0.7989
      3527                          0.0297269               0.8089
      3528                          0.0299287               0.8144
       ...                                ...                  ...
      7046                          0.3993800              10.8677
      -------------------------------------------------------------
                  HL-Gap            0.4216339 Eh           11.4732 eV
             Fermi-level           -0.1823873 Eh           -4.9630 eV

 SCC (total)                   0 d,  0 h, 17 min,  6.073 sec
 SCC setup                      ...        0 min,  0.509 sec (  0.050%)
 Dispersion                     ...        0 min,  4.256 sec (  0.415%)
 classical contributions        ...        0 min,  0.212 sec (  0.021%)
 integral evaluation            ...        0 min,  6.905 sec (  0.673%)
 iterations                     ...       12 min, 20.178 sec ( 72.137%)
 molecular gradient             ...        4 min, 23.176 sec ( 25.649%)
 printout                       ...        0 min, 10.836 sec (  1.056%)

         :::::::::::::::::::::::::::::::::::::::::::::::::::::
         ::                     SUMMARY                     ::
         :::::::::::::::::::::::::::::::::::::::::::::::::::::
         :: total energy           -3716.265960294641 Eh    ::
         :: gradient norm              0.019489090512 Eh/a0 ::
         :: HOMO-LUMO gap             11.473243412865 eV    ::
         ::.................................................::
         :: SCC energy             -3772.049197391252 Eh    ::
         :: -> isotropic ES            0.587140727241 Eh    ::
         :: -> anisotropic ES          1.292489062230 Eh    ::
         :: -> anisotropic XC          2.079176662214 Eh    ::
         :: -> dispersion             -4.541014813656 Eh    ::
         :: repulsion energy          55.110858579777 Eh    ::
         :: add. restraining           0.000000000000 Eh    ::
         :: total charge              -0.000000000010 e     ::
         :::::::::::::::::::::::::::::::::::::::::::::::::::::

      ----------------------------------------------------------- 
     |              Fast Inertial Relaxation Engine              |
      ----------------------------------------------------------- 

          ...................................................
          :                      SETUP                      :
          :.................................................:
          :   energy convergence        0.5000000E-05 Eh    :
          :   grad. convergence         0.1000000E-02 Eh/a0 :
          :   optimization log               true           :
          :   writing optlog all                1     steps :
          :   Hessian reset                    20     steps :
          :   time step scaling                 5     steps :
          :   maximium step len.        1.0000000     a0    :
          :   initial time step         0.2500000     fs    :
          :   maximum time step         1.2500000     fs    :
          :   power reset thr           0.0000000     au    :
          :   alpha parameter           0.1000000           :
          :   BFGS update                   false           :
          :   preconditioning               false           :
          ...................................................

........................................................................
.............................. CYCLE    1 ..............................
........................................................................

 iter      E             dE          RMSdq      gap      omega  full diag
   1  -3772.0526941 -0.377205E+04  0.260E-04   11.47       0.0  T
   2  -3772.0526941 -0.285236E-07  0.154E-04   11.47      10.9  T
   3  -3772.0526941 -0.482487E-09  0.491E-05   11.47      34.2  T
     SCC iter.                  ...        3 min, 58.729 sec
     gradient                   ...        4 min, 22.914 sec
 * total energy  : -3716.2660032 Eh     change    :  -0.4288772E-04 Eh
   gradient norm :     0.0180689 Eh/a0  converged?    E=F G=F D=F
   time step     :     0.2500000 fs     power     :   0.2189694E-08
   step length   :     0.0022841 a0     speed     :   0.2209970E-03

........................................................................
.............................. CYCLE    2 ..............................
........................................................................

 iter      E             dE          RMSdq      gap      omega  full diag
   1  -3772.0577803 -0.377206E+04  0.382E-04   11.47       0.0  T
   2  -3772.0577804 -0.579180E-07  0.226E-04   11.47       7.4  T
   3  -3772.0577804 -0.879936E-09  0.690E-05   11.47      24.4  T
     SCC iter.                  ...        3 min, 45.285 sec
     gradient                   ...        4 min, 23.034 sec
 * total energy  : -3716.2660601 Eh     change    :  -0.5694144E-04 Eh
   gradient norm :     0.0160342 Eh/a0  converged?    E=F G=F D=F
   time step     :     0.2500000 fs     power     :   0.2838537E-08
   step length   :     0.0033426 a0     speed     :   0.3234125E-03

........................................................................
.............................. CYCLE    3 ..............................
........................................................................

 iter      E             dE          RMSdq      gap      omega  full diag
   1  -3772.0642284 -0.377206E+04  0.489E-04   11.47       0.0  T
   2  -3772.0642285 -0.930054E-07  0.290E-04   11.47       5.8  T
   3  -3772.0642285 -0.150612E-08  0.870E-05   11.47      19.3  T
     SCC iter.                  ...        3 min, 44.357 sec
     gradient                   ...        4 min, 22.564 sec
 * total energy  : -3716.2661231 Eh     change    :  -0.6297574E-04 Eh
   gradient norm :     0.0135180 Eh/a0  converged?    E=F G=F D=F
   time step     :     0.2500000 fs     power     :   0.3046222E-08
   step length   :     0.0042802 a0     speed     :   0.4141335E-03

........................................................................
.............................. CYCLE    4 ..............................
........................................................................

 iter      E             dE          RMSdq      gap      omega  full diag
   1  -3772.0717382 -0.377207E+04  0.578E-04   11.47       0.0  T
   2  -3772.0717383 -0.126389E-06  0.343E-04   11.47       4.9  T
   3  -3772.0717383 -0.201771E-08  0.101E-04   11.47      16.7  T
     SCC iter.                  ...        3 min, 43.393 sec
     gradient                   ...        4 min, 21.472 sec
 * total energy  : -3716.2661836 Eh     change    :  -0.6049402E-04 Eh
   gradient norm :     0.0107310 Eh/a0  converged?    E=F G=F D=F
   time step     :     0.2500000 fs     power     :   0.2806311E-08
   step length   :     0.0050648 a0     speed     :   0.4900507E-03

........................................................................
.............................. CYCLE    5 ..............................
........................................................................

 iter      E             dE          RMSdq      gap      omega  full diag
   1  -3772.0799290 -0.377208E+04  0.647E-04   11.47       0.0  T
   2  -3772.0799292 -0.151465E-06  0.384E-04   11.48       4.4  T
   3  -3772.0799292 -0.242153E-08  0.109E-04   11.48      15.4  T
     SCC iter.                  ...        3 min, 40.927 sec
     gradient                   ...        4 min, 22.652 sec
 * total energy  : -3716.2662341 Eh     change    :  -0.5055547E-04 Eh
   gradient norm :     0.0080306 Eh/a0  converged?    E=F G=F D=F
   time step     :     0.2500000 fs     power     :   0.2193948E-08
   step length   :     0.0056689 a0     speed     :   0.5484938E-03

........................................................................
.............................. CYCLE    6 ..............................
........................................................................

 iter      E             dE          RMSdq      gap      omega  full diag
   1  -3772.0891840 -0.377209E+04  0.765E-04   11.48       0.0  T
   2  -3772.0891842 -0.198064E-06  0.455E-04   11.48       3.7  T
   3  -3772.0891842 -0.308864E-08  0.123E-04   11.48      13.7  T
     SCC iter.                  ...        3 min, 43.343 sec
     gradient                   ...        4 min, 24.931 sec
 * total energy  : -3716.2662726 Eh     change    :  -0.3841593E-04 Eh
   gradient norm :     0.0059564 Eh/a0  converged?    E=F G=F D=F
   time step     :     0.2750000 fs     power     :   0.1268515E-08
   step length   :     0.0067140 a0     speed     :   0.5905599E-03

........................................................................
.............................. CYCLE    7 ..............................
........................................................................

 iter      E             dE          RMSdq      gap      omega  full diag
   1  -3772.0986072 -0.377210E+04  0.860E-04   11.48       0.0  T
   2  -3772.0986074 -0.213020E-06  0.512E-04   11.48       3.3  T
   3  -3772.0986074 -0.321688E-08  0.123E-04   11.48      13.7  T
     SCC iter.                  ...        3 min, 44.313 sec
     gradient                   ...        4 min, 21.990 sec
 * total energy  : -3716.2662926 Eh     change    :  -0.2001147E-04 Eh
   gradient norm :     0.0059399 Eh/a0  converged?    E=F G=F D=F
   time step     :     0.3025000 fs     power     :   0.2880198E-09
   step length   :     0.0075292 a0     speed     :   0.6020609E-03

........................................................................
.............................. CYCLE    8 ..............................
........................................................................

 iter      E             dE          RMSdq      gap      omega  full diag
   1  -3772.1066751 -0.377211E+04  0.897E-04   11.48       0.0  T
   2  -3772.1066753 -0.169864E-06  0.534E-04   11.48       3.1  T
   3  -3772.1066753 -0.254249E-08  0.101E-04   11.48      16.6  T
     SCC iter.                  ...        3 min, 41.615 sec
     gradient                   ...        4 min, 22.593 sec
 * total energy  : -3716.2662959 Eh     change    :  -0.3278379E-05 Eh
   gradient norm :     0.0075346 Eh/a0  converged?    E=T G=F D=F
   time step     :     0.3327500 fs     power     :  -0.3374714E-09
   step length   :     0.0078090 a0     speed     :   0.5676657E-03

........................................................................
.............................. CYCLE    9 ..............................
........................................................................
 * reset velocities

 iter      E             dE          RMSdq      gap      omega  full diag
   1  -3772.1063976 -0.377211E+04  0.303E-05   11.48       0.0  T
   2  -3772.1063976 -0.111368E-08  0.147E-05   11.48     114.4  T
   3  -3772.1063976 -0.723048E-10  0.805E-06   11.48     208.8  T
     SCC iter.                  ...        3 min, 39.742 sec
     gradient                   ...        4 min, 23.359 sec
 * total energy  : -3716.2662973 Eh     change    :  -0.1468412E-05 Eh
   gradient norm :     0.0074141 Eh/a0  converged?    E=T G=F D=T
   time step     :     0.1663750 fs     power     :   0.1156274E-09
   step length   :     0.0001955 a0     speed     :   0.2842972E-04

........................................................................
.............................. CYCLE   10 ..............................
........................................................................

 iter      E             dE          RMSdq      gap      omega  full diag
   1  -3772.1058468 -0.377211E+04  0.463E-05   11.48       0.0  T
   2  -3772.1058468 -0.622094E-09  0.275E-05   11.48      61.2  T
   3  -3772.1058468  0.827640E-10  0.745E-06   11.48     225.8  T
     SCC iter.                  ...        3 min, 42.895 sec
     gradient                   ...        4 min, 22.853 sec
 * total energy  : -3716.2663002 Eh     change    :  -0.2829133E-05 Eh
   gradient norm :     0.0071709 Eh/a0  converged?    E=T G=F D=T
   time step     :     0.1663750 fs     power     :   0.2218494E-09
   step length   :     0.0003880 a0     speed     :   0.5640450E-04

........................................................................
.............................. CYCLE   11 ..............................
........................................................................

 iter      E             dE          RMSdq      gap      omega  full diag
   1  -3772.1050344 -0.377211E+04  0.671E-05   11.48       0.0  T
   2  -3772.1050344 -0.138471E-08  0.398E-05   11.48      42.2  T
   3  -3772.1050344 -0.195541E-10  0.109E-05   11.48     154.9  T
     SCC iter.                  ...        3 min, 49.907 sec
     gradient                   ...        4 min, 26.340 sec
 * total energy  : -3716.2663042 Eh     change    :  -0.4002361E-05 Eh
   gradient norm :     0.0068159 Eh/a0  converged?    E=T G=F D=T
   time step     :     0.1663750 fs     power     :   0.3118698E-09
   step length   :     0.0005740 a0     speed     :   0.8345878E-04

........................................................................
.............................. CYCLE   12 ..............................
........................................................................

 iter      E             dE          RMSdq      gap      omega  full diag
   1  -3772.1039776 -0.377210E+04  0.877E-05   11.48       0.0  T
   2  -3772.1039776 -0.229556E-08  0.521E-05   11.48      32.3  T
   3  -3772.1039776 -0.177351E-10  0.140E-05   11.48     120.1  T
     SCC iter.                  ...        3 min, 42.126 sec
     gradient                   ...        4 min, 22.689 sec
 * total energy  : -3716.2663091 Eh     change    :  -0.4940139E-05 Eh
   gradient norm :     0.0063602 Eh/a0  converged?    E=T G=F D=T
   time step     :     0.1663750 fs     power     :   0.3802292E-09
   step length   :     0.0007508 a0     speed     :   0.1091626E-03

........................................................................
.............................. CYCLE   13 ..............................
........................................................................

 iter      E             dE          RMSdq      gap      omega  full diag
   1  -3772.1026995 -0.377210E+04  0.107E-04   11.48       0.0  T
   2  -3772.1026995 -0.340333E-08  0.634E-05   11.48      26.5  T
   3  -3772.1026995  0.454747E-12  0.168E-05   11.48     100.0  T
     SCC iter.                  ...        3 min, 41.871 sec
     gradient                   ...        4 min, 23.468 sec
 * total energy  : -3716.2663147 Eh     change    :  -0.5565198E-05 Eh
   gradient norm :     0.0058203 Eh/a0  converged?    E=F G=F D=T
   time step     :     0.1663750 fs     power     :   0.4232540E-09
   step length   :     0.0009156 a0     speed     :   0.1331173E-03

........................................................................
.............................. CYCLE   14 ..............................
........................................................................

 iter      E             dE          RMSdq      gap      omega  full diag
   1  -3772.1012291 -0.377210E+04  0.124E-04   11.48       0.0  T
   2  -3772.1012291 -0.441969E-08  0.736E-05   11.48      22.9  T
   3  -3772.1012291 -0.445652E-10  0.192E-05   11.48      87.5  T
     SCC iter.                  ...        3 min, 43.217 sec
     gradient                   ...        4 min, 22.167 sec
 * total energy  : -3716.2663205 Eh     change    :  -0.5853105E-05 Eh
   gradient norm :     0.0052177 Eh/a0  converged?    E=F G=F D=F
   time step     :     0.1663750 fs     power     :   0.4393423E-09
   step length   :     0.0010659 a0     speed     :   0.1549646E-03

........................................................................
.............................. CYCLE   15 ..............................
........................................................................

 iter      E             dE          RMSdq      gap      omega  full diag
   1  -3772.0994207 -0.377210E+04  0.154E-04   11.48       0.0  T
   2  -3772.0994207 -0.681939E-08  0.916E-05   11.48      18.4  T
   3  -3772.0994207  0.318323E-11  0.236E-05   11.48      71.2  T
     SCC iter.                  ...        3 min, 47.511 sec
     gradient                   ...        4 min, 22.705 sec
 * total energy  : -3716.2663269 Eh     change    :  -0.6418435E-05 Eh
   gradient norm :     0.0045152 Eh/a0  converged?    E=F G=F D=F
   time step     :     0.1830125 fs     power     :   0.4267411E-09
   step length   :     0.0013342 a0     speed     :   0.1763418E-03

........................................................................
.............................. CYCLE   16 ..............................
........................................................................

 iter      E             dE          RMSdq      gap      omega  full diag
   1  -3772.0972666 -0.377210E+04  0.187E-04   11.48       0.0  T
   2  -3772.0972666 -0.957152E-08  0.111E-04   11.48      15.1  T
   3  -3772.0972666 -0.117325E-09  0.279E-05   11.48      60.3  T
     SCC iter.                  ...        3 min, 42.374 sec
     gradient                   ...        4 min, 22.732 sec
 * total energy  : -3716.2663335 Eh     change    :  -0.6523070E-05 Eh
   gradient norm :     0.0037627 Eh/a0  converged?    E=F G=F D=F
   time step     :     0.2013138 fs     power     :   0.3809936E-09
   step length   :     0.0016333 a0     speed     :   0.1962487E-03

........................................................................
.............................. CYCLE   17 ..............................
........................................................................

 iter      E             dE          RMSdq      gap      omega  full diag
   1  -3772.0948052 -0.377209E+04  0.221E-04   11.47       0.0  T
   2  -3772.0948052 -0.126197E-07  0.132E-04   11.47      12.8  T
   3  -3772.0948052 -0.595719E-10  0.314E-05   11.47      53.5  T
     SCC iter.                  ...        3 min, 46.204 sec
     gradient                   ...        4 min, 22.027 sec
 * total energy  : -3716.2663395 Eh     change    :  -0.6077335E-05 Eh
   gradient norm :     0.0030927 Eh/a0  converged?    E=F G=F D=F
   time step     :     0.2214451 fs     power     :   0.3039619E-09
   step length   :     0.0019525 a0     speed     :   0.2132715E-03

........................................................................
.............................. CYCLE   18 ..............................
........................................................................

 iter      E             dE          RMSdq      gap      omega  full diag
   1  -3772.0921648 -0.377209E+04  0.252E-04   11.47       0.0  T
   2  -3772.0921649 -0.146474E-07  0.150E-04   11.47      11.2  T
   3  -3772.0921649 -0.123237E-09  0.330E-05   11.47      51.0  T
     SCC iter.                  ...        3 min, 46.280 sec
     gradient                   ...        4 min, 23.396 sec
 * total energy  : -3716.2663446 Eh     change    :  -0.5037424E-05 Eh
   gradient norm :     0.0027527 Eh/a0  converged?    E=F G=F D=F
   time step     :     0.2435896 fs     power     :   0.2096750E-09
   step length   :     0.0022683 a0     speed     :   0.2252487E-03

........................................................................
.............................. CYCLE   19 ..............................
........................................................................

 iter      E             dE          RMSdq      gap      omega  full diag
   1  -3772.0896104 -0.377209E+04  0.273E-04   11.47       0.0  T
   2  -3772.0896104 -0.141122E-07  0.163E-04   11.47      10.3  T
   3  -3772.0896104 -0.165983E-09  0.309E-05   11.47      54.4  T
     SCC iter.                  ...        3 min, 45.059 sec
     gradient                   ...        4 min, 23.146 sec
 * total energy  : -3716.2663484 Eh     change    :  -0.3791100E-05 Eh
   gradient norm :     0.0029102 Eh/a0  converged?    E=T G=F D=F
   time step     :     0.2679486 fs     power     :   0.1277584E-09
   step length   :     0.0025396 a0     speed     :   0.2292597E-03

........................................................................
.............................. CYCLE   20 ..............................
........................................................................

 iter      E             dE          RMSdq      gap      omega  full diag
   1  -3772.0874921 -0.377209E+04  0.282E-04   11.47       0.0  T
   2  -3772.0874921 -0.109712E-07  0.168E-04   11.47      10.0  T
   3  -3772.0874921 -0.233740E-09  0.250E-05   11.47      67.3  T
     SCC iter.                  ...        3 min, 43.348 sec
     gradient                   ...        4 min, 23.642 sec
 * total energy  : -3716.2663514 Eh     change    :  -0.2992987E-05 Eh
   gradient norm :     0.0033468 Eh/a0  converged?    E=T G=F D=F
   time step     :     0.2947435 fs     power     :   0.8935030E-10
   step length   :     0.0027441 a0     speed     :   0.2252012E-03
 * RMSD in coord.:     0.0006956 a0     energy gain  -0.3910588E-03 Eh

........................................................................
.............................. CYCLE   21 ..............................
........................................................................

 iter      E             dE          RMSdq      gap      omega  full diag
   1  -3772.0864054 -0.377209E+04  0.218E-04   11.47       0.0  T
   2  -3772.0864054 -0.406953E-08  0.129E-04   11.47      13.0  T
   3  -3772.0864054 -0.271029E-09  0.140E-05   11.47     120.3  T
     SCC iter.                  ...        3 min, 48.082 sec
     gradient                   ...        4 min, 23.921 sec
 * total energy  : -3716.2663539 Eh     change    :  -0.2503329E-05 Eh
   gradient norm :     0.0036286 Eh/a0  converged?    E=T G=F D=F
   time step     :     0.2500000 fs     power     :   0.1088720E-09
   step length   :     0.0022272 a0     speed     :   0.2154913E-03

........................................................................
.............................. CYCLE   22 ..............................
........................................................................

 iter      E             dE          RMSdq      gap      omega  full diag
   1  -3772.0860309 -0.377209E+04  0.201E-04   11.47       0.0  T
   2  -3772.0860309 -0.248201E-08  0.119E-04   11.47      14.2  T
   3  -3772.0860309 -0.138698E-09  0.114E-05   11.47     147.1  T
     SCC iter.                  ...        3 min, 42.274 sec
     gradient                   ...        4 min, 22.375 sec
 * total energy  : -3716.2663570 Eh     change    :  -0.3128368E-05 Eh
   gradient norm :     0.0036965 Eh/a0  converged?    E=T G=F D=F
   time step     :     0.2500000 fs     power     :   0.1510131E-09
   step length   :     0.0021565 a0     speed     :   0.2086498E-03

........................................................................
.............................. CYCLE   23 ..............................
........................................................................

 iter      E             dE          RMSdq      gap      omega  full diag
   1  -3772.0863252 -0.377209E+04  0.194E-04   11.47       0.0  T
   2  -3772.0863252 -0.251521E-08  0.113E-04   11.47      14.9  T
   3  -3772.0863252 -0.201908E-09  0.138E-05   11.47     121.8  T
     SCC iter.                  ...        3 min, 42.495 sec
     gradient                   ...        4 min, 23.127 sec
 * total energy  : -3716.2663609 Eh     change    :  -0.3911358E-05 Eh
   gradient norm :     0.0035314 Eh/a0  converged?    E=T G=F D=F
   time step     :     0.2500000 fs     power     :   0.1934932E-09
   step length   :     0.0021337 a0     speed     :   0.2064427E-03

........................................................................
.............................. CYCLE   24 ..............................
........................................................................

 iter      E             dE          RMSdq      gap      omega  full diag
   1  -3772.0872181 -0.377209E+04  0.194E-04   11.47       0.0  T
   2  -3772.0872181 -0.403543E-08  0.112E-04   11.47      15.0  T
   3  -3772.0872181 -0.786713E-10  0.188E-05   11.47      89.3  T
     SCC iter.                  ...        3 min, 42.762 sec
     gradient                   ...        4 min, 25.165 sec
 * total energy  : -3716.2663653 Eh     change    :  -0.4452945E-05 Eh
   gradient norm :     0.0031586 Eh/a0  converged?    E=T G=F D=F
   time step     :     0.2500000 fs     power     :   0.2191792E-09
   step length   :     0.0021553 a0     speed     :   0.2085330E-03

........................................................................
.............................. CYCLE   25 ..............................
........................................................................

 iter      E             dE          RMSdq      gap      omega  full diag
   1  -3772.0886202 -0.377209E+04  0.199E-04   11.47       0.0  T
   2  -3772.0886202 -0.608634E-08  0.115E-04   11.47      14.6  T
   3  -3772.0886202 -0.532054E-10  0.237E-05   11.47      70.9  T
     SCC iter.                  ...        3 min, 46.083 sec
     gradient                   ...        4 min, 28.136 sec
 * total energy  : -3716.2663699 Eh     change    :  -0.4552193E-05 Eh
   gradient norm :     0.0026364 Eh/a0  converged?    E=T G=F D=F
   time step     :     0.2500000 fs     power     :   0.2185757E-09
   step length   :     0.0022059 a0     speed     :   0.2134286E-03

........................................................................
.............................. CYCLE   26 ..............................
........................................................................

 iter      E             dE          RMSdq      gap      omega  full diag
   1  -3772.0906266 -0.377209E+04  0.226E-04   11.47       0.0  T
   2  -3772.0906266 -0.100590E-07  0.130E-04   11.47      12.9  T
   3  -3772.0906266 -0.745786E-10  0.305E-05   11.47      55.1  T
     SCC iter.                  ...        3 min, 43.488 sec
     gradient                   ...        4 min, 29.074 sec
 * total energy  : -3716.2663744 Eh     change    :  -0.4529285E-05 Eh
   gradient norm :     0.0020216 Eh/a0  converged?    E=T G=F D=F
   time step     :     0.2750000 fs     power     :   0.1859882E-09
   step length   :     0.0025064 a0     speed     :   0.2204622E-03

........................................................................
.............................. CYCLE   27 ..............................
........................................................................

 iter      E             dE          RMSdq      gap      omega  full diag
   1  -3772.0931585 -0.377209E+04  0.251E-04   11.47       0.0  T
   2  -3772.0931585 -0.139280E-07  0.145E-04   11.47      11.6  T
   3  -3772.0931585 -0.841283E-10  0.355E-05   11.47      47.4  T
     SCC iter.                  ...        3 min, 48.192 sec
     gradient                   ...        4 min, 22.119 sec
 * total energy  : -3716.2663782 Eh     change    :  -0.3771204E-05 Eh
   gradient norm :     0.0015976 Eh/a0  converged?    E=T G=F D=F
   time step     :     0.3025000 fs     power     :   0.1255238E-09
   step length   :     0.0028385 a0     speed     :   0.2269756E-03

........................................................................
.............................. CYCLE   28 ..............................
........................................................................

 iter      E             dE          RMSdq      gap      omega  full diag
   1  -3772.0959044 -0.377210E+04  0.260E-04   11.47       0.0  T
   2  -3772.0959044 -0.143064E-07  0.150E-04   11.47      11.2  T
   3  -3772.0959044  0.404725E-10  0.353E-05   11.47      47.7  T
     SCC iter.                  ...        3 min, 45.402 sec
     gradient                   ...        4 min, 22.005 sec
 * total energy  : -3716.2663808 Eh     change    :  -0.2609689E-05 Eh
   gradient norm :     0.0017892 Eh/a0  converged?    E=T G=F D=F
   time step     :     0.3327500 fs     power     :   0.6508588E-10
   step length   :     0.0031355 a0     speed     :   0.2279333E-03

........................................................................
.............................. CYCLE   29 ..............................
........................................................................

 iter      E             dE          RMSdq      gap      omega  full diag
   1  -3772.0983360 -0.377210E+04  0.245E-04   11.47       0.0  T
   2  -3772.0983360 -0.957289E-08  0.141E-04   11.47      11.9  T
   3  -3772.0983360 -0.140972E-10  0.276E-05   11.47      60.9  T
     SCC iter.                  ...        3 min, 41.041 sec
     gradient                   ...        4 min, 22.364 sec
 * total energy  : -3716.2663827 Eh     change    :  -0.1891096E-05 Eh
   gradient norm :     0.0022832 Eh/a0  converged?    E=T G=F D=F
   time step     :     0.3660250 fs     power     :   0.4228434E-10
   step length   :     0.0033206 a0     speed     :   0.2194413E-03

........................................................................
.............................. CYCLE   30 ..............................
........................................................................

 iter      E             dE          RMSdq      gap      omega  full diag
   1  -3772.1000360 -0.377210E+04  0.218E-04   11.47       0.0  T
   2  -3772.1000360 -0.370483E-08  0.127E-04   11.47      13.3  T
   3  -3772.1000360 -0.418368E-10  0.160E-05   11.47     105.0  T
     SCC iter.                  ...        3 min, 42.236 sec
     gradient                   ...        4 min, 23.162 sec
 * total energy  : -3716.2663850 Eh     change    :  -0.2340775E-05 Eh
   gradient norm :     0.0025887 Eh/a0  converged?    E=T G=F D=F
   time step     :     0.4026275 fs     power     :   0.6328589E-10
   step length   :     0.0034782 a0     speed     :   0.2089601E-03

........................................................................
.............................. CYCLE   31 ..............................
........................................................................

 iter      E             dE          RMSdq      gap      omega  full diag
   1  -3772.1007176 -0.377210E+04  0.201E-04   11.47       0.0  T
   2  -3772.1007176 -0.132422E-08  0.118E-04   11.47      14.2  T
   3  -3772.1007176 -0.134150E-09  0.941E-06   11.47     178.7  T
     SCC iter.                  ...        3 min, 44.045 sec
     gradient                   ...        4 min, 22.996 sec
 * total energy  : -3716.2663888 Eh     change    :  -0.3767260E-05 Eh
   gradient norm :     0.0024946 Eh/a0  converged?    E=T G=F D=F
   time step     :     0.4428903 fs     power     :   0.1031939E-09
   step length   :     0.0037326 a0     speed     :   0.2038592E-03

........................................................................
.............................. CYCLE   32 ..............................
........................................................................

 iter      E             dE          RMSdq      gap      omega  full diag
   1  -3772.1002505 -0.377210E+04  0.210E-04   11.47       0.0  T
   2  -3772.1002505 -0.543514E-08  0.126E-04   11.47      13.3  T
   3  -3772.1002505  0.827640E-10  0.190E-05   11.47      88.4  T
     SCC iter.                  ...        3 min, 41.683 sec
     gradient                   ...        4 min, 23.549 sec
 * total energy  : -3716.2663940 Eh     change    :  -0.5177871E-05 Eh
   gradient norm :     0.0020125 Eh/a0  converged?    E=F G=F D=F
   time step     :     0.4871793 fs     power     :   0.1240903E-09
   step length   :     0.0041607 a0     speed     :   0.2065797E-03

........................................................................
.............................. CYCLE   33 ..............................
........................................................................

 iter      E             dE          RMSdq      gap      omega  full diag
   1  -3772.0988097 -0.377210E+04  0.235E-04   11.47       0.0  T
   2  -3772.0988097 -0.144787E-07  0.143E-04   11.47      11.8  T
   3  -3772.0988097 -0.504770E-10  0.341E-05   11.47      49.4  T
     SCC iter.                  ...        3 min, 40.113 sec
     gradient                   ...        4 min, 23.628 sec
 * total energy  : -3716.2663993 Eh     change    :  -0.5338587E-05 Eh
   gradient norm :     0.0015571 Eh/a0  converged?    E=F G=F D=F
   time step     :     0.5358972 fs     power     :   0.1030835E-09
   step length   :     0.0047471 a0     speed     :   0.2142718E-03

........................................................................
.............................. CYCLE   34 ..............................
........................................................................

 iter      E             dE          RMSdq      gap      omega  full diag
   1  -3772.0972139 -0.377210E+04  0.237E-04   11.47       0.0  T
   2  -3772.0972139 -0.174432E-07  0.146E-04   11.47      11.5  T
   3  -3772.0972139 -0.198725E-09  0.371E-05   11.47      45.4  T
     SCC iter.                  ...        3 min, 52.718 sec
     gradient                   ...        4 min, 22.229 sec
 * total energy  : -3716.2664037 Eh     change    :  -0.4386064E-05 Eh
   gradient norm :     0.0017925 Eh/a0  converged?    E=T G=F D=F
   time step     :     0.5894869 fs     power     :   0.6922890E-10
   step length   :     0.0053598 a0     speed     :   0.2199320E-03

........................................................................
.............................. CYCLE   35 ..............................
........................................................................

 iter      E             dE          RMSdq      gap      omega  full diag
   1  -3772.0967554 -0.377210E+04  0.222E-04   11.47       0.0  T
   2  -3772.0967554 -0.791124E-08  0.136E-04   11.47      12.4  T
   3  -3772.0967554 -0.750333E-10  0.206E-05   11.47      81.6  T
     SCC iter.                  ...        3 min, 54.577 sec
     gradient                   ...        4 min, 22.494 sec
 * total energy  : -3716.2664082 Eh     change    :  -0.4505324E-05 Eh
   gradient norm :     0.0021069 Eh/a0  converged?    E=T G=F D=F
   time step     :     0.6484356 fs     power     :   0.7569996E-10
   step length   :     0.0058754 a0     speed     :   0.2191739E-03

........................................................................
.............................. CYCLE   36 ..............................
........................................................................

 iter      E             dE          RMSdq      gap      omega  full diag
   1  -3772.0982762 -0.377210E+04  0.267E-04   11.47       0.0  T
   2  -3772.0982762 -0.343016E-08  0.157E-04   11.47      10.7  T
   3  -3772.0982762 -0.604814E-10  0.161E-05   11.47     104.6  T
     SCC iter.                  ...        3 min, 43.894 sec
     gradient                   ...        4 min, 23.821 sec
 * total energy  : -3716.2664145 Eh     change    :  -0.6310966E-05 Eh
   gradient norm :     0.0018407 Eh/a0  converged?    E=F G=F D=F
   time step     :     0.7132792 fs     power     :   0.1031808E-09
   step length   :     0.0065320 a0     speed     :   0.2215160E-03

........................................................................
.............................. CYCLE   37 ..............................
........................................................................

 iter      E             dE          RMSdq      gap      omega  full diag
   1  -3772.1017322 -0.377210E+04  0.349E-04   11.47       0.0  T
   2  -3772.1017322 -0.152254E-07  0.203E-04   11.47       8.3  T
   3  -3772.1017322 -0.331966E-10  0.360E-05   11.47      46.8  T
     SCC iter.                  ...        3 min, 40.264 sec
     gradient                   ...        4 min, 21.958 sec
 * total energy  : -3716.2664216 Eh     change    :  -0.7074924E-05 Eh
   gradient norm :     0.0014213 Eh/a0  converged?    E=F G=F D=F
   time step     :     0.7846071 fs     power     :   0.9212863E-10
   step length   :     0.0074834 a0     speed     :   0.2307076E-03

........................................................................
.............................. CYCLE   38 ..............................
........................................................................

 iter      E             dE          RMSdq      gap      omega  full diag
   1  -3772.1052920 -0.377211E+04  0.343E-04   11.48       0.0  T
   2  -3772.1052920 -0.185760E-07  0.199E-04   11.48       8.4  T
   3  -3772.1052920 -0.485670E-09  0.376E-05   11.48      44.8  T
     SCC iter.                  ...        3 min, 40.853 sec
     gradient                   ...        4 min, 23.840 sec
 * total energy  : -3716.2664278 Eh     change    :  -0.6238757E-05 Eh
   gradient norm :     0.0017563 Eh/a0  converged?    E=F G=F D=F
   time step     :     0.8630678 fs     power     :   0.6947417E-10
   step length   :     0.0085137 a0     speed     :   0.2386091E-03

........................................................................
.............................. CYCLE   39 ..............................
........................................................................

 iter      E             dE          RMSdq      gap      omega  full diag
   1  -3772.1063031 -0.377211E+04  0.279E-04   11.48       0.0  T
   2  -3772.1063032 -0.856107E-08  0.164E-04   11.48      10.3  T
   3  -3772.1063032 -0.367891E-09  0.291E-05   11.48      57.7  T
     SCC iter.                  ...        3 min, 42.933 sec
     gradient                   ...        4 min, 23.257 sec
 * total energy  : -3716.2664353 Eh     change    :  -0.7502885E-05 Eh
   gradient norm :     0.0016779 Eh/a0  converged?    E=F G=F D=F
   time step     :     0.9493746 fs     power     :   0.8891135E-10
   step length   :     0.0094980 a0     speed     :   0.2419960E-03

........................................................................
.............................. CYCLE   40 ..............................
........................................................................

 iter      E             dE          RMSdq      gap      omega  full diag
   1  -3772.1041612 -0.377210E+04  0.346E-04   11.48       0.0  T
   2  -3772.1041613 -0.242690E-07  0.206E-04   11.48       8.2  T
   3  -3772.1041613  0.235104E-09  0.507E-05   11.48      33.2  T
     SCC iter.                  ...        3 min, 43.046 sec
     gradient                   ...        4 min, 22.197 sec
 * total energy  : -3716.2664439 Eh     change    :  -0.8544610E-05 Eh
   gradient norm :     0.0014046 Eh/a0  converged?    E=F G=F D=F
   time step     :     1.0443120 fs     power     :   0.7973497E-10
   step length   :     0.0108570 a0     speed     :   0.2514755E-03

........................................................................
.............................. CYCLE   41 ..............................
........................................................................

 iter      E             dE          RMSdq      gap      omega  full diag
   1  -3772.1023394 -0.377210E+04  0.362E-04   11.48       0.0  T
   2  -3772.1023394 -0.136829E-07  0.215E-04   11.48       7.8  T
   3  -3772.1023394  0.727596E-11  0.309E-05   11.48      54.5  T
     SCC iter.                  ...        3 min, 42.233 sec
     gradient                   ...        4 min, 22.879 sec
 * total energy  : -3716.2664522 Eh     change    :  -0.8331647E-05 Eh
   gradient norm :     0.0016554 Eh/a0  converged?    E=F G=F D=F
   time step     :     1.1487432 fs     power     :   0.7490514E-10
   step length   :     0.0123140 a0     speed     :   0.2592926E-03

........................................................................
.............................. CYCLE   42 ..............................
........................................................................

 iter      E             dE          RMSdq      gap      omega  full diag
   1  -3772.1044004 -0.377210E+04  0.412E-04   11.48       0.0  T
   2  -3772.1044004 -0.206451E-07  0.239E-04   11.48       7.0  T
   3  -3772.1044004  0.377440E-10  0.464E-05   11.48      36.3  T
     SCC iter.                  ...        3 min, 41.609 sec
     gradient                   ...        4 min, 21.485 sec
 * total energy  : -3716.2664622 Eh     change    :  -0.9929975E-05 Eh
   gradient norm :     0.0013128 Eh/a0  converged?    E=F G=F D=F
   time step     :     1.2500000 fs     power     :   0.7901833E-10
   step length   :     0.0138130 a0     speed     :   0.2672962E-03
 * RMSD in coord.:     0.0017424 a0     energy gain  -0.1107991E-03 Eh

........................................................................
.............................. CYCLE   43 ..............................
........................................................................

 iter      E             dE          RMSdq      gap      omega  full diag
   1  -3772.1048567 -0.377210E+04  0.686E-05   11.48       0.0  T
   2  -3772.1048567 -0.533419E-09  0.403E-05   11.48      41.7  T
   3  -3772.1048567  0.381988E-10  0.652E-06   11.48     257.9  T
     SCC iter.                  ...        3 min, 50.565 sec
     gradient                   ...        4 min, 22.806 sec
 * total energy  : -3716.2664639 Eh     change    :  -0.1743015E-05 Eh
   gradient norm :     0.0013169 Eh/a0  converged?    E=T G=F D=F
   time step     :     0.2500000 fs     power     :   0.8892205E-10
   step length   :     0.0026510 a0     speed     :   0.2564941E-03

........................................................................
.............................. CYCLE   44 ..............................
........................................................................

 iter      E             dE          RMSdq      gap      omega  full diag
   1  -3772.1052724 -0.377211E+04  0.649E-05   11.48       0.0  T
   2  -3772.1052724 -0.670752E-09  0.380E-05   11.48      44.2  T
   3  -3772.1052724  0.181899E-11  0.799E-06   11.48     210.4  T
     SCC iter.                  ...        3 min, 46.996 sec
     gradient                   ...        4 min, 22.416 sec
 * total energy  : -3716.2664658 Eh     change    :  -0.1893759E-05 Eh
   gradient norm :     0.0012384 Eh/a0  converged?    E=T G=F D=F
   time step     :     0.2500000 fs     power     :   0.9707389E-10
   step length   :     0.0025677 a0     speed     :   0.2484412E-03

........................................................................
.............................. CYCLE   45 ..............................
........................................................................

 iter      E             dE          RMSdq      gap      omega  full diag
   1  -3772.1055871 -0.377211E+04  0.730E-05   11.48       0.0  T
   2  -3772.1055871 -0.653017E-09  0.429E-05   11.48      39.2  T
   3  -3772.1055871  0.450200E-10  0.794E-06   11.48     211.8  T
     SCC iter.                  ...        3 min, 44.217 sec
     gradient                   ...        4 min, 23.211 sec
 * total energy  : -3716.2664678 Eh     change    :  -0.1966629E-05 Eh
   gradient norm :     0.0011121 Eh/a0  converged?    E=T G=F D=F
   time step     :     0.2500000 fs     power     :   0.9980004E-10
   step length   :     0.0025148 a0     speed     :   0.2433244E-03

........................................................................
.............................. CYCLE   46 ..............................
........................................................................

 iter      E             dE          RMSdq      gap      omega  full diag
   1  -3772.1057658 -0.377211E+04  0.832E-05   11.48       0.0  T
   2  -3772.1057658 -0.698492E-09  0.488E-05   11.48      34.4  T
   3  -3772.1057658  0.241016E-10  0.787E-06   11.48     213.7  T
     SCC iter.                  ...        3 min, 44.166 sec
     gradient                   ...        4 min, 23.581 sec
 * total energy  : -3716.2664697 Eh     change    :  -0.1954318E-05 Eh
   gradient norm :     0.0010019 Eh/a0  converged?    E=T G=F D=F
   time step     :     0.2500000 fs     power     :   0.9695929E-10
   step length   :     0.0024873 a0     speed     :   0.2406609E-03

........................................................................
.............................. CYCLE   47 ..............................
........................................................................

 iter      E             dE          RMSdq      gap      omega  full diag
   1  -3772.1058065 -0.377211E+04  0.892E-05   11.48       0.0  T
   2  -3772.1058065 -0.655291E-09  0.523E-05   11.48      32.1  T
   3  -3772.1058065  0.559339E-10  0.739E-06   11.48     227.6  T
     SCC iter.                  ...        3 min, 43.102 sec
     gradient                   ...        4 min, 22.727 sec
 * total energy  : -3716.2664716 Eh     change    :  -0.1852902E-05 Eh
   gradient norm :     0.0009654 Eh/a0  converged?    E=T G=T D=F
   time step     :     0.2500000 fs     power     :   0.9185407E-10
   step length   :     0.0024728 a0     speed     :   0.2392567E-03

   *** GEOMETRY OPTIMIZATION CONVERGED AFTER 47 CYCLES ***

------------------------------------------------------------------------
 total energy gain   :        -0.0005113 Eh       -0.3208 kcal/mol
 total RMSD          :         0.0022465 a0        0.0012 Å
 total power (kW/mol):        -0.0285603 (step)   -0.0001 (real)
------------------------------------------------------------------------

 FIRE (total)                  0 d,  6 h, 39 min, 59.361 sec
 setup                          ...        0 min,  0.135 sec (  0.001%)
 velocities                     ...        0 min,  0.003 sec (  0.000%)
 propagation                    ...        0 min,  0.005 sec (  0.000%)
 singlepoint calculation        ...      399 min, 58.373 sec ( 99.996%)
 log and printout               ...        0 min,  0.767 sec (  0.003%)
 preconditioner                 ...        0 min,  0.000 sec (  0.000%)
 model hessian                  ...        0 min,  0.000 sec (  0.000%)
 hessian update                 ...        0 min,  0.000 sec (  0.000%)

================
 final structure:
================
3536
 xtb: 6.6.1 (8d0f1dd)
C           68.56131215038434       53.21748212301301       52.90443485810761
C           68.00849474988699       53.96819209240248       54.11214056420557
C           69.09696666959867       54.12042202568556       55.17344796746368
C           66.79829801041693       53.26486301376946       54.73755147654521
C           65.64560209052847       52.95750998598238       53.77608375894449
C           65.20863368708049       54.20849031630494       53.01353861581220
C           64.42450016938486       52.39758968420111       54.52213342904285
C           64.66860535552227       51.21829731219219       55.47097595828969
C           65.40502593128898       50.07719505064993       54.77299327195880
C           63.33257222450825       50.67243147108616       55.99545499793987
C           62.55480233029570       51.58553164843286       56.95143739171775
C           63.16055357988238       51.53278163847489       58.35109922865110
C           61.08102371289446       51.15545403601724       56.99522132704520
C           60.26887611406601       51.66107227700702       55.79198685349495
C           59.77096855563286       53.08055681252018       56.05660618262861
C           59.11372045055464       50.69595324614869       55.49955534363631
C           58.19155459028674       51.09621709402830       54.34260052503113
C           57.06281390915623       50.07314113247247       54.21067035989002
C           58.89443099449575       51.33913209644219       52.99540943195974
C           59.44137789745012       50.12108613026826       52.23410738234344
C           60.87296730057740       49.77473662499525       52.64107987074934
C           59.40278998704483       50.39668002723340       50.72208437271959
C           58.00356894329526       50.28554278172005       50.10277532431981
C           57.64757561560403       48.81890153477285       49.85576766875991
C           57.90355059387802       51.07571905606877       48.78959019983794
C           57.88599919871471       52.60433197736316       48.93218360977716
C           56.65161211280905       53.07227910857049       49.70064514811332
C           57.91345291583236       53.25344143818018       47.53948081756452
C           58.34443990448124       54.72787409113998       47.55218138049496
C           57.86648607399422       55.41333248352932       46.27252611570928
C           59.86926421355975       54.87091321563140       47.71844394619782
C           60.30287625416897       55.87180964742771       48.80061327930827
C           59.80984931865634       57.28255040568506       48.49438596652882
C           61.83239730399819       55.83285008709527       48.91812783455289
C           62.46374232478830       56.69115682172215       50.02448110111392
C           63.98445626338904       56.60204605079142       49.91064184959853
C           61.98045889331753       56.23948044576500       51.40578097768866
C           62.56871011497997       56.96920575558384       52.62325577510719
C           61.98739674341737       56.32899640073780       53.88367659433222
C           62.25290807995584       58.46739602041959       52.57035739104054
C           62.83045610290203       59.33774631969476       53.69907821984573
C           62.22187954524371       60.73310229167932       53.57615296726912
C           64.36255805024963       59.38334925698524       53.63216773097248
C           65.06452729736360       60.33699319139060       54.61291294803424
C           66.54188602108029       60.43972182195879       54.23251950778960
C           64.91570908156250       59.87017169768018       56.06576188828441
C           65.27926577586970       60.93166262948418       57.11450137795858
C           65.48621507254511       60.25790111402112       58.47071857715043
C           64.20721729700713       62.03675782638070       57.20269698928164
C           64.76585802005800       63.45443584096725       57.03720591442520
C           65.63756791376908       63.83054627417653       58.23508353282833
C           63.66166964408789       64.51157142530255       56.89242903617637
C           62.69913456778280       64.36268270426804       55.70517962393101
C           63.44384268029565       64.38836588640065       54.37467440938612
C           61.66670075887382       65.49611775803312       55.77883120285584
C           60.49564159524165       65.43134694916404       54.78783801944576
C           59.72569940304007       66.74973607756260       54.86623423066231
C           59.55369292781744       64.26302778308460       55.09619966611641
C           58.59294366372463       63.89838702132108       53.95178850762950
C           57.36575299376734       63.20806206447185       54.54036391127737
C           59.29695826381825       62.99584531006533       52.93332895404473
C           58.48450347925380       62.62522762593512       51.68583280174932
C           59.17673821138291       61.47333364278919       50.95655726243571
C           58.29458306763551       63.81411721861548       50.73692771796672
C           57.15442341942440       63.59800828568466       49.72288357146756
C           57.67142171740606       63.69283380389268       48.28893417965862
C           56.01129063290868       64.60278863747794       49.91786025810885
C           55.26232519947722       64.47145162622557       51.24907404841459
C           54.37630447072710       63.22566109514725       51.24774424261280
C           54.38354160332123       65.70077297582300       51.52103258244803
C           55.13187950577407       66.98932868316346       51.89628726883937
C           55.63979417206735       66.91600747840211       53.33414298688199
C           54.18052637236751       68.17856023908116       51.69828602449122
C           54.71080015548058       69.57130889439496       52.06753241465991
C           53.54424537087347       70.55928722247549       52.02282480237010
C           55.82758638899436       70.00123929581891       51.11100510178938
C           56.58605301922033       71.27935520206887       51.50050489295613
C           57.34129578640850       71.79636882380697       50.27692792754637
C           57.53544107491135       70.99830602323181       52.67175817848648
C           58.30299015347987       72.20347769014168       53.23607672445220
C           59.31941253026236       71.70325710364732       54.26212082823992
C           57.34136086148528       73.21962515529567       53.86225439795729
C           57.97598680120358       74.48865032829927       54.45152298293686
C           56.87815323936432       75.30804473301752       55.13035690517206
C           58.68581859607451       75.29914360432772       53.36090665215598
C           59.34539274537054       76.60819056512098       53.81377197972503
C           59.96010806563640       77.30561154521473       52.59903031856108
C           60.38013120361362       76.42654591961013       54.93400801812952
C           61.54809393961622       75.49795800681545       54.60800341751896
C           62.52687963405165       75.41711371118247       55.77342712063164
H           68.78693919435780       52.18550467082904       53.16405745445381
H           67.85318396337729       53.21387051125475       52.08172772634929
H           69.47584038708972       53.69245372925442       52.55591410136343
H           62.02646697404602       75.05201925778117       56.66804700687882
H           63.34718186325066       74.74291358613573       55.53950664874695
H           62.94013611566606       76.39893933056223       55.99401479209550
H           60.78250025883491       77.41211248331153       55.18396036994938
H           59.87575704766164       76.05246897808081       55.82789676875245
H           59.45203477108500       74.67773280076159       52.89564258466338
H           57.95313371656021       75.54319348100395       52.58634375217857
H           58.70136842491839       74.19825294133986       55.21524108182761
H           57.29389206666581       76.15129087254142       55.67491030934278
H           56.17342407141012       75.68638798945867       54.39244053877259
H           56.33062254477921       74.68995936318099       55.83882072265660
H           56.61582888735899       73.53298505293928       53.10918306604239
H           56.78910343358290       72.71224323401185       54.65803586011621
H           56.96454801328102       70.55156467407672       53.48810049378307
H           58.26572654275522       70.25451764458067       52.34210971997079
H           58.56656868643258       77.27076768772856       54.20688024449059
H           60.46417163751288       78.22216463426345       52.89739930057468
H           60.68096177419864       76.66091517774858       52.10198251952058
H           59.18595431721198       77.56144773266276       51.87862996765109
H           58.85196175550152       72.67823955907110       52.41970191700991
H           59.98370631480098       72.50346830191921       54.57790613114575
H           58.80859426983817       71.31320636113455       55.13965782737552
H           59.93010870548746       70.91023767268229       53.83557338992236
H           55.86180282372880       72.04128554211050       51.79666841264552
H           57.84935962937491       72.73263575243074       50.49204410049006
H           58.07771979378042       71.06438691294504       49.95098753520673
H           56.65156289673939       71.97526946782956       49.45445295134912
H           56.55753661108255       69.19358190899452       51.02600820991351
H           55.38014190196363       70.14819299621685       50.12466202788301
H           55.09397495543893       69.54280607276078       53.09057010626392
H           53.85792858151910       71.55798644254666       52.31446849834884
H           53.12962068415356       70.61110192693236       51.01847544302245
H           52.75437342494752       70.24562214436313       52.70258617884058
H           53.87015676018143       68.20191999666024       50.64996283771425
H           53.28661157190427       67.99177234384298       52.29684749181451
H           55.99197033392879       67.10461940902618       51.23028587717080
H           56.33254604994573       67.72739162494820       53.54151540399974
H           54.80909832409839       66.97892873278838       54.03408244510904
H           56.15822632703555       65.97726899299670       53.51073087416197
H           53.77437624468064       65.88156066280172       50.63295420929840
H           53.70094377005417       65.46058938340843       52.34029156196922
H           55.99050473559137       64.37469088749808       52.05727963261054
H           54.95819108189033       62.32908964060910       51.05165811543084
H           53.88408358131164       63.10355614966359       52.21129494243660
H           53.60787867611721       63.31217337977533       50.48146206144197
H           56.42810824732521       65.60774283105843       49.83026557849335
H           55.29114335239817       64.47658569368257       49.10691986063532
H           56.74994717567493       62.59038665696315       49.85817842012182
H           56.87406838182579       63.47695383749937       47.58245895720270
H           58.04998481537770       64.69188126105786       48.08578288334083
H           58.47429705195412       62.97790371287208       48.12227534480852
H           58.09513433146972       64.71494370238547       51.31656615612405
H           59.23274238202126       63.98524181956839       50.20567786799182
H           57.49780739084044       62.27558984393412       52.00211300153622
H           60.19627530245704       61.75025893310330       50.69603385121903
H           59.21648600478603       60.58516841654374       51.58468180284206
H           58.64841944825200       61.21824996939081       50.04106438424470
H           60.22686813559721       63.47078996334029       52.61353450655152
H           59.56226986045436       62.07106937313981       53.44963312549085
H           58.26976800256499       64.81692785122789       53.45448042665224
H           56.87141621227203       63.86842338526334       55.24880315484204
H           56.64261973981698       62.94198559783620       53.77434066010139
H           57.66586774109916       62.30012812985117       55.05941325096946
H           60.13172506168695       63.37339902485034       55.34935519337496
H           58.97114245803277       64.52958549565682       55.98152422574407
H           60.88654626929009       65.31990045258414       53.77367045326409
H           58.84527791049275       66.73339093114433       54.22920726136299
H           59.40068586140817       66.92939637584638       55.88814878216324
H           60.34969668899311       67.58496654211699       54.55759814825035
H           61.24996955483936       65.52311604508618       56.78859961184762
H           62.19596939046820       66.43876990712211       55.62163085599403
H           62.17272987220907       63.40862099581057       55.79593290439310
H           62.74662018577478       64.27979186325328       53.54900687054786
H           63.98022501182281       65.32725008207883       54.25776251382805
H           64.15811430183484       63.57241153498398       54.30807638308187
H           63.07425107079578       64.51477448304144       57.81448150433171
H           64.14360782051335       65.49007951980164       56.81497538102612
H           65.39201759904802       63.47746769293413       56.13946678117028
H           66.05364427772786       64.82670761464469       58.10428116974196
H           65.04836901566701       63.82395254223524       59.15051662362379
H           66.45890304127401       63.12924153876737       58.35608809914297
H           63.45968301461081       61.86242911735474       56.42974581285801
H           63.69381422487906       61.97497609495452       58.16488723047375
H           66.22965884367537       61.38710380212828       56.82152219466739
H           66.30079163067353       59.53756056092873       58.42064030061260
H           65.72688295476237       60.99379379310371       59.23370255111602
H           64.58249546009188       59.73454080504708       58.77554141435913
H           63.88630210359999       59.55508267536132       56.24644465410816
H           65.55556443473911       58.99708514821505       56.21083230308497
H           64.62669411332328       61.33255451755831       54.50943496232331
H           67.03267493778587       59.47540200415551       54.34335258937889
H           66.64837039562345       60.76280825967627       53.19985578588532
H           67.05814644397213       61.16191314546970       54.85908965320333
H           64.75461425443848       58.37793953515258       53.79761314932215
H           64.63949990384464       59.68270177969244       52.61713030039909
H           62.52131426994394       58.91773010305985       54.66011269862735
H           61.13996565865502       60.65936617546780       53.50433524385615
H           62.45547717305486       61.35125218761750       54.43716008512560
H           62.58575205022127       61.23499495393158       52.68241997552241
H           62.61348480036411       58.87554238076272       51.62455477081420
H           61.16437295702860       58.57716732600210       52.57713186114574
H           63.65135112457547       56.82578077922358       52.63146254697199
H           60.91253555248664       56.48879079485103       53.93241011368944
H           62.17423384607959       55.25760162332301       53.88675118902317
H           62.43490949340225       56.75034879115134       54.77760317913219
H           60.89670372557201       56.35171810171452       51.44565301451665
H           62.20150622114115       55.17405827805882       51.51089620032116
H           62.17129361106058       57.73063369653722       49.85957270011158
H           64.46664366961585       57.30592667957326       50.58283577843457
H           64.32719001610691       55.60052935320726       50.16223295889812
H           64.29896136737413       56.82955103154882       48.89437312715213
H           62.13703628963992       54.79499057041734       49.07632964250627
H           62.25064867956682       56.15244839102565       47.95994658121298
H           59.86125201901474       55.54726536687598       49.74795234043854
H           60.24381937833656       57.64345286010314       47.56391884388044
H           58.72829390454394       57.29852200227035       48.39906709149394
H           60.08154463114338       57.96851251361974       49.29260711590853
H           60.29505047132366       53.89870694625457       47.97562526571052
H           60.30967896062084       55.16894671030893       46.76437069215771
H           57.85522667911776       55.21808156199335       48.39904024110431
H           58.21836713985559       56.44043622603970       46.22770244132659
H           58.24267226279234       54.88578573556697       45.39847769185793
H           56.77967049559126       55.42111523547317       46.22450563220117
H           58.59352840994521       52.70097981382859       46.88689821253525
H           56.91453078011461       53.17348132391550       47.10479845299260
H           58.77930721997255       52.92311041865458       49.47838773291117
H           55.74981174556456       52.65369410429096       49.26047988997522
H           56.69566746008501       52.77311590466758       50.74422784328114
H           56.57126666061333       54.15620877533684       49.67104224939192
H           58.74656830893494       50.79319463507272       48.15366574042520
H           56.98821979220423       50.77946791163846       48.27011093602797
H           57.26844856975481       50.68503093781047       50.80418325053516
H           58.31200626813109       48.37964223959853       49.11420542062189
H           57.73225835203066       48.24215730475530       50.77399509916192
H           56.62586206418570       48.72375946950164       49.49489860850077
H           59.80606192810335       51.39620293123846       50.54998653598654
H           60.06038195025631       49.69005108749430       50.21234899247326
H           58.81133225903741       49.25350726265555       52.44025578010278
H           61.53834446269368       50.61014808661144       52.43204258250759
H           60.93727906605905       49.53416497106273       53.69777694637697
H           61.22548542969314       48.91183394475220       52.07775360004955
H           58.15772503843952       51.82955221130931       52.35521632864872
H           59.70493736792769       52.05626018765707       53.13622153968394
H           57.72600207303965       52.05014770732439       54.61427411395607
H           56.43812907397265       50.07896664797023       55.10034622815378
H           56.43641854151429       50.30923361554267       53.35343844779752
H           57.45331264107177       49.06650143292154       54.08908038285266
H           59.52242686956529       49.70237567808960       55.30404016089287
H           58.49963807247720       50.61875066249918       56.40120195572261
H           60.92915176580961       51.68900493347348       54.92173445285572
H           59.33863730419931       53.51954256253426       55.16149122664348
H           59.01539642867737       53.07856837086515       56.84001343469878
H           60.59330435091868       53.71702767135805       56.37381474604365
H           61.04417870953036       50.06414834134431       57.03699879844760
H           60.61743285323706       51.52917072509363       57.91113333716539
H           62.60052956205091       52.61748999179140       56.59244843370333
H           64.20766957547654       51.82572417682743       58.33375603311450
H           62.63181384481316       52.19893713790277       59.02892444403829
H           63.09075142424834       50.52083871068352       58.74444645624487
H           62.70761061365954       50.43987915796546       55.13118025032334
H           63.52228633448927       49.72975707655258       56.51526778254966
H           65.27121410054791       51.55861600655762       56.31803486294809
H           64.82559219015283       49.73153633628934       53.92005445709501
H           66.38746051614366       50.38303664921580       54.42398162865496
H           65.53513566976349       49.24275091393641       55.45836920461577
H           63.97694763050735       53.21495786243446       55.09154035578488
H           63.68823658549257       52.08526798593265       53.77532215365335
H           65.97751077432760       52.21135784040268       53.04856014291824
H           65.01244703371680       55.02446061682451       53.70476434999379
H           65.96923021851377       54.53000250337466       52.30857166832040
H           64.29780392844886       54.01149338713702       52.45343129256690
H           67.14775310073365       52.33285819296391       55.18591272112865
H           66.41899615344708       53.89311143342155       55.54645201251299
H           67.70791637975042       54.96863667417878       53.78911604333781
H           68.69512909784861       54.60867798706023       56.05896121735119
H           69.48602345097241       53.14767992615729       55.46879050811466
H           69.92305428617826       54.71928131380453       54.79312988654210
H           61.17446716573905       74.49691389551168       54.38698543966377
H           62.07639083803353       75.85936454301621       53.72477105707829
[...]
  3287   6 C     3289   6 C                                       1.5358011
  3290   6 C     3291   6 C                                       1.5285443
  3290   6 C     3292   6 C                                       1.5356145
  3292   6 C     3293   6 C                                       1.5383330
  3293   6 C     3294   6 C                                       1.5281853
  3293   6 C     3295   6 C                                       1.5343957
  3295   6 C     3296   6 C                                       1.5375757
  3296   6 C     3297   6 C                                       1.5289593
  3296   6 C     3298   6 C                                       1.5320405
  3298   6 C     3299   6 C                                       1.5380242
  3299   6 C     3300   6 C                                       1.5283023
  3299   6 C     3301   6 C                                       1.5353438
  3301   6 C     3302   6 C                                       1.5378210
  3302   6 C     3303   6 C                                       1.5294616
  3302   6 C     3304   6 C                                       1.5332860
  3304   6 C     3305   6 C                                       1.5384152
  3305   6 C     3306   6 C                                       1.5282741
  3305   6 C     3307   6 C                                       1.5335018
  3307   6 C     3308   6 C                                       1.5360827
  3308   6 C     3309   6 C                                       1.5294475
  3308   6 C     3310   6 C                                       1.5333150
  3310   6 C     3311   6 C                                       1.5386213
  3311   6 C     3312   6 C                                       1.5286798
  3311   6 C     3313   6 C                                       1.5345953
  3313   6 C     3314   6 C                                       1.5389278
  3314   6 C     3315   6 C                                       1.5282719
  3314   6 C     3316   6 C                                       1.5329964
  3316   6 C     3317   6 C                                       1.5363694
  3317   6 C     3318   6 C                                       1.5292996
  3317   6 C     3319   6 C                                       1.5333559
  3319   6 C     3320   6 C                                       1.5375370
  3320   6 C     3321   6 C                                       1.5281117
  3320   6 C     3322   6 C                                       1.5334107
  3322   6 C     3323   6 C                                       1.5381497
  3323   6 C     3324   6 C                                       1.5287973
  3323   6 C     3325   6 C                                       1.5334381
  3325   6 C     3326   6 C                                       1.5376382
  3326   6 C     3327   6 C                                       1.5296191
  3326   6 C     3328   6 C                                       1.5348236
  3328   6 C     3329   6 C                                       1.5364780
  3329   6 C     3330   6 C                                       1.5284803
  3329   6 C     3331   6 C                                       1.5334517
  3331   6 C     3332   6 C                                       1.5375796
  3332   6 C     3333   6 C                                       1.5289203
  3332   6 C     3334   6 C                                       1.5335790
  3334   6 C     3335   6 C                                       1.5373384
  3335   6 C     3336   6 C                                       1.5293382
  3335   6 C     3337   6 C                                       1.5343957
  3337   6 C     3338   6 C                                       1.5371974
  3338   6 C     3339   6 C                                       1.5289197
  3338   6 C     3340   6 C                                       1.5330338
  3340   6 C     3341   6 C                                       1.5366157
  3341   6 C     3342   6 C                                       1.5290653
  3341   6 C     3343   6 C                                       1.5340969
  3343   6 C     3344   6 C                                       1.5376267
  3344   6 C     3345   6 C                                       1.5281643
  3344   6 C     3346   6 C                                       1.5333197
  3346   6 C     3347   6 C                                       1.5361633
  3347   6 C     3348   6 C                                       1.5287465
  3347   6 C     3349   6 C                                       1.5333320
  3349   6 C     3350   6 C                                       1.5357753
  3350   6 C     3351   6 C                                       1.5289636
  3350   6 C     3352   6 C                                       1.5322659
  3352   6 C     3353   6 C                                       1.5279597
  3353   6 C     3354   6 C                                       1.5244546
  3265   6 C     3355   1 H                                       1.0872796
  3265   6 C     3356   1 H                                       1.0875006
  3265   6 C     3357   1 H                                       1.0878933
  3354   6 C     3358   1 H                                       1.0881868
  3354   6 C     3359   1 H                                       1.0879735
  3354   6 C     3360   1 H                                       1.0876906
  3352   6 C     3361   1 H                                       1.0914467
  3352   6 C     3362   1 H                                       1.0928180
  3349   6 C     3363   1 H                                       1.0918614
  3349   6 C     3364   1 H                                       1.0935694
  3347   6 C     3365   1 H                                       1.0931209
  3348   6 C     3366   1 H                                       1.0876281
  3348   6 C     3367   1 H                                       1.0872106
  3348   6 C     3368   1 H                                       1.0864436
  3346   6 C     3369   1 H                                       1.0924537
  3346   6 C     3370   1 H                                       1.0923471
  3343   6 C     3371   1 H                                       1.0910085
  3343   6 C     3372   1 H                                       1.0928403
  3350   6 C     3373   1 H                                       1.0943273
  3351   6 C     3374   1 H                                       1.0864924
  3351   6 C     3375   1 H                                       1.0882387
  3351   6 C     3376   1 H                                       1.0880813
  3344   6 C     3377   1 H                                       1.0927430
  3345   6 C     3378   1 H                                       1.0882044
  3345   6 C     3379   1 H                                       1.0879856
  3345   6 C     3380   1 H                                       1.0865914
  3341   6 C     3381   1 H                                       1.0923727
  3342   6 C     3382   1 H                                       1.0884651
  3342   6 C     3383   1 H                                       1.0880315
  3342   6 C     3384   1 H                                       1.0868681
  3340   6 C     3385   1 H                                       1.0918749
  3340   6 C     3386   1 H                                       1.0935073
  3338   6 C     3387   1 H                                       1.0928282
  3339   6 C     3388   1 H                                       1.0864975
  3339   6 C     3389   1 H                                       1.0877120
  3339   6 C     3390   1 H                                       1.0879242
  3337   6 C     3391   1 H                                       1.0920809
  3337   6 C     3392   1 H                                       1.0942961
  3335   6 C     3393   1 H                                       1.0927874
  3336   6 C     3394   1 H                                       1.0881839
  3336   6 C     3395   1 H                                       1.0865480
  3336   6 C     3396   1 H                                       1.0880013
  3334   6 C     3397   1 H                                       1.0921808
  3334   6 C     3398   1 H                                       1.0936767
  3332   6 C     3399   1 H                                       1.0926646
  3333   6 C     3400   1 H                                       1.0882492
  3333   6 C     3401   1 H                                       1.0884283
  3333   6 C     3402   1 H                                       1.0869281
  3331   6 C     3403   1 H                                       1.0918789
  3331   6 C     3404   1 H                                       1.0936113
  3329   6 C     3405   1 H                                       1.0917010
  3330   6 C     3406   1 H                                       1.0866117
  3330   6 C     3407   1 H                                       1.0873442
  3330   6 C     3408   1 H                                       1.0869963
  3328   6 C     3409   1 H                                       1.0917272
  3328   6 C     3410   1 H                                       1.0925653
  3326   6 C     3411   1 H                                       1.0930683
  3327   6 C     3412   1 H                                       1.0875593
  3327   6 C     3413   1 H                                       1.0864672
  3327   6 C     3414   1 H                                       1.0875112
  3325   6 C     3415   1 H                                       1.0920932
  3325   6 C     3416   1 H                                       1.0933298
  3323   6 C     3417   1 H                                       1.0926845
  3324   6 C     3418   1 H                                       1.0882626
  3324   6 C     3419   1 H                                       1.0879549
  3324   6 C     3420   1 H                                       1.0866188
  3322   6 C     3421   1 H                                       1.0905213
  3322   6 C     3422   1 H                                       1.0935088
  3320   6 C     3423   1 H                                       1.0917740
  3321   6 C     3424   1 H                                       1.0868177
  3321   6 C     3425   1 H                                       1.0884453
  3321   6 C     3426   1 H                                       1.0879900
  3319   6 C     3427   1 H                                       1.0920842
  3319   6 C     3428   1 H                                       1.0938283
  3317   6 C     3429   1 H                                       1.0929512
  3318   6 C     3430   1 H                                       1.0872012
  3318   6 C     3431   1 H                                       1.0863832
  3318   6 C     3432   1 H                                       1.0882206
  3316   6 C     3433   1 H                                       1.0928454
  3316   6 C     3434   1 H                                       1.0938484
  3314   6 C     3435   1 H                                       1.0933708
  3315   6 C     3436   1 H                                       1.0866004
  3315   6 C     3437   1 H                                       1.0884318
  3315   6 C     3438   1 H                                       1.0880059
  3313   6 C     3439   1 H                                       1.0926726
  3313   6 C     3440   1 H                                       1.0928717
  3311   6 C     3441   1 H                                       1.0930447
  3312   6 C     3442   1 H                                       1.0882691
  3312   6 C     3443   1 H                                       1.0881525
  3312   6 C     3444   1 H                                       1.0870718
  3310   6 C     3445   1 H                                       1.0909417
  3310   6 C     3446   1 H                                       1.0911098
  3308   6 C     3447   1 H                                       1.0929411
  3309   6 C     3448   1 H                                       1.0889432
  3309   6 C     3449   1 H                                       1.0881316
  3309   6 C     3450   1 H                                       1.0855811
  3307   6 C     3451   1 H                                       1.0922877
  3307   6 C     3452   1 H                                       1.0941217
  3305   6 C     3453   1 H                                       1.0936455
  3306   6 C     3454   1 H                                       1.0863860
  3306   6 C     3455   1 H                                       1.0884517
  3306   6 C     3456   1 H                                       1.0878586
  3304   6 C     3457   1 H                                       1.0914974
  3304   6 C     3458   1 H                                       1.0928606
  3302   6 C     3459   1 H                                       1.0922997
  3303   6 C     3460   1 H                                       1.0872129
  3303   6 C     3461   1 H                                       1.0887201
  3303   6 C     3462   1 H                                       1.0883410
  3301   6 C     3463   1 H                                       1.0921666
  3301   6 C     3464   1 H                                       1.0940166
  3299   6 C     3465   1 H                                       1.0928371
  3300   6 C     3466   1 H                                       1.0860964
  3300   6 C     3467   1 H                                       1.0878231
  3300   6 C     3468   1 H                                       1.0879306
  3298   6 C     3469   1 H                                       1.0910500
  3298   6 C     3470   1 H                                       1.0929631
  3296   6 C     3471   1 H                                       1.0925439
  3297   6 C     3472   1 H                                       1.0854554
  3297   6 C     3473   1 H                                       1.0882415
  3297   6 C     3474   1 H                                       1.0885730
  3295   6 C     3475   1 H                                       1.0919895
  3295   6 C     3476   1 H                                       1.0938564
  3293   6 C     3477   1 H                                       1.0936537
  3294   6 C     3478   1 H                                       1.0879862
  3294   6 C     3479   1 H                                       1.0882715
  3294   6 C     3480   1 H                                       1.0864207
  3292   6 C     3481   1 H                                       1.0927097
  3292   6 C     3482   1 H                                       1.0932640
  3290   6 C     3483   1 H                                       1.0935845
  3291   6 C     3484   1 H                                       1.0884360
  3291   6 C     3485   1 H                                       1.0881945
  3291   6 C     3486   1 H                                       1.0859679
  3289   6 C     3487   1 H                                       1.0919093
  3289   6 C     3488   1 H                                       1.0918887
  3287   6 C     3489   1 H                                       1.0945580
  3288   6 C     3490   1 H                                       1.0880122
  3288   6 C     3491   1 H                                       1.0865512
  3288   6 C     3492   1 H                                       1.0880809
  3286   6 C     3493   1 H                                       1.0920456
  3286   6 C     3494   1 H                                       1.0931057
  3284   6 C     3495   1 H                                       1.0935490
  3285   6 C     3496   1 H                                       1.0874348
  3285   6 C     3497   1 H                                       1.0881469
  3285   6 C     3498   1 H                                       1.0864036
  3283   6 C     3499   1 H                                       1.0920635
  3283   6 C     3500   1 H                                       1.0931232
  3281   6 C     3501   1 H                                       1.0926846
  3282   6 C     3502   1 H                                       1.0879153
  3282   6 C     3503   1 H                                       1.0879637
  3282   6 C     3504   1 H                                       1.0860457
  3280   6 C     3505   1 H                                       1.0911957
  3280   6 C     3506   1 H                                       1.0930988
  3278   6 C     3507   1 H                                       1.0923763
  3279   6 C     3508   1 H                                       1.0870486
  3279   6 C     3509   1 H                                       1.0882123
  3279   6 C     3510   1 H                                       1.0884356
  3277   6 C     3511   1 H                                       1.0912644
  3277   6 C     3512   1 H                                       1.0933181
  3275   6 C     3513   1 H                                       1.0936793
  3276   6 C     3514   1 H                                       1.0886818
  3276   6 C     3515   1 H                                       1.0879193
  3276   6 C     3516   1 H                                       1.0881413
  3274   6 C     3517   1 H                                       1.0919445
  3274   6 C     3518   1 H                                       1.0921186
  3272   6 C     3519   1 H                                       1.0927879
  3273   6 C     3520   1 H                                       1.0876579
  3273   6 C     3521   1 H                                       1.0885159
  3273   6 C     3522   1 H                                       1.0870652
  3271   6 C     3523   1 H                                       1.0929125
  3271   6 C     3524   1 H                                       1.0928932
  3269   6 C     3525   1 H                                       1.0938070
  3270   6 C     3526   1 H                                       1.0872119
  3270   6 C     3527   1 H                                       1.0882633
  3270   6 C     3528   1 H                                       1.0881351
  3268   6 C     3529   1 H                                       1.0918584
  3268   6 C     3530   1 H                                       1.0924043
  3266   6 C     3531   1 H                                       1.0947108
  3267   6 C     3532   1 H                                       1.0872188
  3267   6 C     3533   1 H                                       1.0884572
  3267   6 C     3534   1 H                                       1.0878162
  3353   6 C     3535   1 H                                       1.0907480
  3353   6 C     3536   1 H                                       1.0929608

 * 2 distinct bonds (by element types)

   Z      Z             #   av. dist./Å        max./Å        min./Å
   1 H    6 C        2366     1.0900634     1.0969653     1.0847330
   6 C    6 C        1114     1.5326064     1.5400631     1.5237606


optimized geometry written to: xtbopt.xyz


           -------------------------------------------------
          | TOTAL ENERGY            -3716.266471563321 Eh   |
          | GRADIENT NORM               0.000965431452 Eh/α |
          | HOMO-LUMO GAP              11.477405015747 eV   |
           -------------------------------------------------

------------------------------------------------------------------------
 * finished run on 2024/10/04 at 21:19:37.399     
------------------------------------------------------------------------
 total:
 * wall-time:     0 d,  7 h,  6 min, 59.612 sec
 *  cpu-time:     1 d, 13 h, 49 min,  4.548 sec
 * ratio c/w:     5.314 speedup
 SCF:
 * wall-time:     0 d,  0 h, 17 min,  6.213 sec
 *  cpu-time:     0 d,  1 h, 49 min,  6.620 sec
 * ratio c/w:     6.379 speedup
 ANC optimizer:
 * wall-time:     0 d,  6 h, 48 min, 25.799 sec
 *  cpu-time:     1 d, 11 h, 58 min, 13.480 sec
 * ratio c/w:     5.284 speedup

