3536
 energy: -3716.266471563321 gnorm: 0.000965431452 xtb: 6.6.1 (8d0f1dd)
C           68.56131215038434       53.21748212301301       52.90443485810761
C           68.00849474988699       53.96819209240248       54.11214056420557
C           69.09696666959867       54.12042202568556       55.17344796746368
C           66.79829801041693       53.26486301376946       54.73755147654521
C           65.64560209052847       52.95750998598238       53.77608375894449
C           65.20863368708049       54.20849031630494       53.01353861581220
C           64.42450016938486       52.39758968420111       54.52213342904285
C           64.66860535552227       51.21829731219219       55.47097595828969
C           65.40502593128898       50.07719505064993       54.77299327195880
C           63.33257222450825       50.67243147108616       55.99545499793987
C           62.55480233029570       51.58553164843286       56.95143739171775
C           63.16055357988238       51.53278163847489       58.35109922865110
C           61.08102371289446       51.15545403601724       56.99522132704520
C           60.26887611406601       51.66107227700702       55.79198685349495
C           59.77096855563286       53.08055681252018       56.05660618262861
C           59.11372045055464       50.69595324614869       55.49955534363631
C           58.19155459028674       51.09621709402830       54.34260052503113
C           57.06281390915623       50.07314113247247       54.21067035989002
C           58.89443099449575       51.33913209644219       52.99540943195974
C           59.44137789745012       50.12108613026826       52.23410738234344
C           60.87296730057740       49.77473662499525       52.64107987074934
C           59.40278998704483       50.39668002723340       50.72208437271959
C           58.00356894329526       50.28554278172005       50.10277532431981
C           57.64757561560403       48.81890153477285       49.85576766875991
C           57.90355059387802       51.07571905606877       48.78959019983794
C           57.88599919871471       52.60433197736316       48.93218360977716
C           56.65161211280905       53.07227910857049       49.70064514811332
C           57.91345291583236       53.25344143818018       47.53948081756452
C           58.34443990448124       54.72787409113998       47.55218138049496
C           57.86648607399422       55.41333248352932       46.27252611570928
C           59.86926421355975       54.87091321563140       47.71844394619782
C           60.30287625416897       55.87180964742771       48.80061327930827
C           59.80984931865634       57.28255040568506       48.49438596652882
C           61.83239730399819       55.83285008709527       48.91812783455289
C           62.46374232478830       56.69115682172215       50.02448110111392
C           63.98445626338904       56.60204605079142       49.91064184959853
C           61.98045889331753       56.23948044576500       51.40578097768866
C           62.56871011497997       56.96920575558384       52.62325577510719
C           61.98739674341737       56.32899640073780       53.88367659433222
C           62.25290807995584       58.46739602041959       52.57035739104054
C           62.83045610290203       59.33774631969476       53.69907821984573
C           62.22187954524371       60.73310229167932       53.57615296726912
C           64.36255805024963       59.38334925698524       53.63216773097248
C           65.06452729736360       60.33699319139060       54.61291294803424
C           66.54188602108029       60.43972182195879       54.23251950778960
C           64.91570908156250       59.87017169768018       56.06576188828441
C           65.27926577586970       60.93166262948418       57.11450137795858
C           65.48621507254511       60.25790111402112       58.47071857715043
C           64.20721729700713       62.03675782638070       57.20269698928164
C           64.76585802005800       63.45443584096725       57.03720591442520
C           65.63756791376908       63.83054627417653       58.23508353282833
C           63.66166964408789       64.51157142530255       56.89242903617637
C           62.69913456778280       64.36268270426804       55.70517962393101
C           63.44384268029565       64.38836588640065       54.37467440938612
C           61.66670075887382       65.49611775803312       55.77883120285584
C           60.49564159524165       65.43134694916404       54.78783801944576
C           59.72569940304007       66.74973607756260       54.86623423066231
C           59.55369292781744       64.26302778308460       55.09619966611641
C           58.59294366372463       63.89838702132108       53.95178850762950
C           57.36575299376734       63.20806206447185       54.54036391127737
C           59.29695826381825       62.99584531006533       52.93332895404473
C           58.48450347925380       62.62522762593512       51.68583280174932
C           59.17673821138291       61.47333364278919       50.95655726243571
C           58.29458306763551       63.81411721861548       50.73692771796672
C           57.15442341942440       63.59800828568466       49.72288357146756
C           57.67142171740606       63.69283380389268       48.28893417965862
C           56.01129063290868       64.60278863747794       49.91786025810885
C           55.26232519947722       64.47145162622557       51.24907404841459
C           54.37630447072710       63.22566109514725       51.24774424261280
C           54.38354160332123       65.70077297582300       51.52103258244803
C           55.13187950577407       66.98932868316346       51.89628726883937
C           55.63979417206735       66.91600747840211       53.33414298688199
C           54.18052637236751       68.17856023908116       51.69828602449122
C           54.71080015548058       69.57130889439496       52.06753241465991
C           53.54424537087347       70.55928722247549       52.02282480237010
C           55.82758638899436       70.00123929581891       51.11100510178938
C           56.58605301922033       71.27935520206887       51.50050489295613
C           57.34129578640850       71.79636882380697       50.27692792754637
C           57.53544107491135       70.99830602323181       52.67175817848648
C           58.30299015347987       72.20347769014168       53.23607672445220
C           59.31941253026236       71.70325710364732       54.26212082823992
C           57.34136086148528       73.21962515529567       53.86225439795729
C           57.97598680120358       74.48865032829927       54.45152298293686
C           56.87815323936432       75.30804473301752       55.13035690517206
C           58.68581859607451       75.29914360432772       53.36090665215598
C           59.34539274537054       76.60819056512098       53.81377197972503
C           59.96010806563640       77.30561154521473       52.59903031856108
C           60.38013120361362       76.42654591961013       54.93400801812952
C           61.54809393961622       75.49795800681545       54.60800341751896
C           62.52687963405165       75.41711371118247       55.77342712063164
H           68.78693919435780       52.18550467082904       53.16405745445381
H           67.85318396337729       53.21387051125475       52.08172772634929
H           69.47584038708972       53.69245372925442       52.55591410136343
H           62.02646697404602       75.05201925778117       56.66804700687882
H           63.34718186325066       74.74291358613573       55.53950664874695
H           62.94013611566606       76.39893933056223       55.99401479209550
H           60.78250025883491       77.41211248331153       55.18396036994938
H           59.87575704766164       76.05246897808081       55.82789676875245
H           59.45203477108500       74.67773280076159       52.89564258466338
H           57.95313371656021       75.54319348100395       52.58634375217857
H           58.70136842491839       74.19825294133986       55.21524108182761
H           57.29389206666581       76.15129087254142       55.67491030934278
H           56.17342407141012       75.68638798945867       54.39244053877259
H           56.33062254477921       74.68995936318099       55.83882072265660
H           56.61582888735899       73.53298505293928       53.10918306604239
H           56.78910343358290       72.71224323401185       54.65803586011621
H           56.96454801328102       70.55156467407672       53.48810049378307
H           58.26572654275522       70.25451764458067       52.34210971997079
H           58.56656868643258       77.27076768772856       54.20688024449059
H           60.46417163751288       78.22216463426345       52.89739930057468
H           60.68096177419864       76.66091517774858       52.10198251952058
H           59.18595431721198       77.56144773266276       51.87862996765109
H           58.85196175550152       72.67823955907110       52.41970191700991
H           59.98370631480098       72.50346830191921       54.57790613114575
H           58.80859426983817       71.31320636113455       55.13965782737552
H           59.93010870548746       70.91023767268229       53.83557338992236
H           55.86180282372880       72.04128554211050       51.79666841264552
H           57.84935962937491       72.73263575243074       50.49204410049006
H           58.07771979378042       71.06438691294504       49.95098753520673
H           56.65156289673939       71.97526946782956       49.45445295134912
H           56.55753661108255       69.19358190899452       51.02600820991351
H           55.38014190196363       70.14819299621685       50.12466202788301
H           55.09397495543893       69.54280607276078       53.09057010626392
H           53.85792858151910       71.55798644254666       52.31446849834884
H           53.12962068415356       70.61110192693236       51.01847544302245
H           52.75437342494752       70.24562214436313       52.70258617884058
H           53.87015676018143       68.20191999666024       50.64996283771425
H           53.28661157190427       67.99177234384298       52.29684749181451
H           55.99197033392879       67.10461940902618       51.23028587717080
H           56.33254604994573       67.72739162494820       53.54151540399974
H           54.80909832409839       66.97892873278838       54.03408244510904
H           56.15822632703555       65.97726899299670       53.51073087416197
H           53.77437624468064       65.88156066280172       50.63295420929840
H           53.70094377005417       65.46058938340843       52.34029156196922
H           55.99050473559137       64.37469088749808       52.05727963261054
H           54.95819108189033       62.32908964060910       51.05165811543084
H           53.88408358131164       63.10355614966359       52.21129494243660
H           53.60787867611721       63.31217337977533       50.48146206144197
H           56.42810824732521       65.60774283105843       49.83026557849335
H           55.29114335239817       64.47658569368257       49.10691986063532
H           56.74994717567493       62.59038665696315       49.85817842012182
H           56.87406838182579       63.47695383749937       47.58245895720270
H           58.04998481537770       64.69188126105786       48.08578288334083
H           58.47429705195412       62.97790371287208       48.12227534480852
H           58.09513433146972       64.71494370238547       51.31656615612405
H           59.23274238202126       63.98524181956839       50.20567786799182
H           57.49780739084044       62.27558984393412       52.00211300153622
H           60.19627530245704       61.75025893310330       50.69603385121903
H           59.21648600478603       60.58516841654374       51.58468180284206
H           58.64841944825200       61.21824996939081       50.04106438424470
H           60.22686813559721       63.47078996334029       52.61353450655152
H           59.56226986045436       62.07106937313981       53.44963312549085
H           58.26976800256499       64.81692785122789       53.45448042665224
H           56.87141621227203       63.86842338526334       55.24880315484204
H           56.64261973981698       62.94198559783620       53.77434066010139
H           57.66586774109916       62.30012812985117       55.05941325096946
H           60.13172506168695       63.37339902485034       55.34935519337496
H           58.97114245803277       64.52958549565682       55.98152422574407
H           60.88654626929009       65.31990045258414       53.77367045326409
H           58.84527791049275       66.73339093114433       54.22920726136299
H           59.40068586140817       66.92939637584638       55.88814878216324
H           60.34969668899311       67.58496654211699       54.55759814825035
H           61.24996955483936       65.52311604508618       56.78859961184762
H           62.19596939046820       66.43876990712211       55.62163085599403
H           62.17272987220907       63.40862099581057       55.79593290439310
H           62.74662018577478       64.27979186325328       53.54900687054786
H           63.98022501182281       65.32725008207883       54.25776251382805
H           64.15811430183484       63.57241153498398       54.30807638308187
H           63.07425107079578       64.51477448304144       57.81448150433171
H           64.14360782051335       65.49007951980164       56.81497538102612
H           65.39201759904802       63.47746769293413       56.13946678117028
H           66.05364427772786       64.82670761464469       58.10428116974196
H           65.04836901566701       63.82395254223524       59.15051662362379
H           66.45890304127401       63.12924153876737       58.35608809914297
H           63.45968301461081       61.86242911735474       56.42974581285801
H           63.69381422487906       61.97497609495452       58.16488723047375
H           66.22965884367537       61.38710380212828       56.82152219466739
H           66.30079163067353       59.53756056092873       58.42064030061260
H           65.72688295476237       60.99379379310371       59.23370255111602
H           64.58249546009188       59.73454080504708       58.77554141435913
H           63.88630210359999       59.55508267536132       56.24644465410816
H           65.55556443473911       58.99708514821505       56.21083230308497
H           64.62669411332328       61.33255451755831       54.50943496232331
H           67.03267493778587       59.47540200415551       54.34335258937889
H           66.64837039562345       60.76280825967627       53.19985578588532
H           67.05814644397213       61.16191314546970       54.85908965320333
H           64.75461425443848       58.37793953515258       53.79761314932215
H           64.63949990384464       59.68270177969244       52.61713030039909
H           62.52131426994394       58.91773010305985       54.66011269862735
H           61.13996565865502       60.65936617546780       53.50433524385615
H           62.45547717305486       61.35125218761750       54.43716008512560
H           62.58575205022127       61.23499495393158       52.68241997552241
H           62.61348480036411       58.87554238076272       51.62455477081420
H           61.16437295702860       58.57716732600210       52.57713186114574
H           63.65135112457547       56.82578077922358       52.63146254697199
H           60.91253555248664       56.48879079485103       53.93241011368944
H           62.17423384607959       55.25760162332301       53.88675118902317
H           62.43490949340225       56.75034879115134       54.77760317913219
H           60.89670372557201       56.35171810171452       51.44565301451665
H           62.20150622114115       55.17405827805882       51.51089620032116
H           62.17129361106058       57.73063369653722       49.85957270011158
H           64.46664366961585       57.30592667957326       50.58283577843457
H           64.32719001610691       55.60052935320726       50.16223295889812
H           64.29896136737413       56.82955103154882       48.89437312715213
H           62.13703628963992       54.79499057041734       49.07632964250627
H           62.25064867956682       56.15244839102565       47.95994658121298
H           59.86125201901474       55.54726536687598       49.74795234043854
H           60.24381937833656       57.64345286010314       47.56391884388044
H           58.72829390454394       57.29852200227035       48.39906709149394
H           60.08154463114338       57.96851251361974       49.29260711590853
H           60.29505047132366       53.89870694625457       47.97562526571052
H           60.30967896062084       55.16894671030893       46.76437069215771
H           57.85522667911776       55.21808156199335       48.39904024110431
H           58.21836713985559       56.44043622603970       46.22770244132659
H           58.24267226279234       54.88578573556697       45.39847769185793
H           56.77967049559126       55.42111523547317       46.22450563220117
H           58.59352840994521       52.70097981382859       46.88689821253525
H           56.91453078011461       53.17348132391550       47.10479845299260
H           58.77930721997255       52.92311041865458       49.47838773291117
H           55.74981174556456       52.65369410429096       49.26047988997522
H           56.69566746008501       52.77311590466758       50.74422784328114
H           56.57126666061333       54.15620877533684       49.67104224939192
H           58.74656830893494       50.79319463507272       48.15366574042520
H           56.98821979220423       50.77946791163846       48.27011093602797
H           57.26844856975481       50.68503093781047       50.80418325053516
H           58.31200626813109       48.37964223959853       49.11420542062189
H           57.73225835203066       48.24215730475530       50.77399509916192
H           56.62586206418570       48.72375946950164       49.49489860850077
H           59.80606192810335       51.39620293123846       50.54998653598654
H           60.06038195025631       49.69005108749430       50.21234899247326
H           58.81133225903741       49.25350726265555       52.44025578010278
H           61.53834446269368       50.61014808661144       52.43204258250759
H           60.93727906605905       49.53416497106273       53.69777694637697
H           61.22548542969314       48.91183394475220       52.07775360004955
H           58.15772503843952       51.82955221130931       52.35521632864872
H           59.70493736792769       52.05626018765707       53.13622153968394
H           57.72600207303965       52.05014770732439       54.61427411395607
H           56.43812907397265       50.07896664797023       55.10034622815378
H           56.43641854151429       50.30923361554267       53.35343844779752
H           57.45331264107177       49.06650143292154       54.08908038285266
H           59.52242686956529       49.70237567808960       55.30404016089287
H           58.49963807247720       50.61875066249918       56.40120195572261
H           60.92915176580961       51.68900493347348       54.92173445285572
H           59.33863730419931       53.51954256253426       55.16149122664348
H           59.01539642867737       53.07856837086515       56.84001343469878
H           60.59330435091868       53.71702767135805       56.37381474604365
H           61.04417870953036       50.06414834134431       57.03699879844760
H           60.61743285323706       51.52917072509363       57.91113333716539
H           62.60052956205091       52.61748999179140       56.59244843370333
H           64.20766957547654       51.82572417682743       58.33375603311450
H           62.63181384481316       52.19893713790277       59.02892444403829
H           63.09075142424834       50.52083871068352       58.74444645624487
H           62.70761061365954       50.43987915796546       55.13118025032334
H           63.52228633448927       49.72975707655258       56.51526778254966
H           65.27121410054791       51.55861600655762       56.31803486294809
H           64.82559219015283       49.73153633628934       53.92005445709501
H           66.38746051614366       50.38303664921580       54.42398162865496
H           65.53513566976349       49.24275091393641       55.45836920461577
H           63.97694763050735       53.21495786243446       55.09154035578488
H           63.68823658549257       52.08526798593265       53.77532215365335
H           65.97751077432760       52.21135784040268       53.04856014291824
H           65.01244703371680       55.02446061682451       53.70476434999379
H           65.96923021851377       54.53000250337466       52.30857166832040
H           64.29780392844886       54.01149338713702       52.45343129256690
H           67.14775310073365       52.33285819296391       55.18591272112865
H           66.41899615344708       53.89311143342155       55.54645201251299
H           67.70791637975042       54.96863667417878       53.78911604333781
H           68.69512909784861       54.60867798706023       56.05896121735119
H           69.48602345097241       53.14767992615729       55.46879050811466
H           69.92305428617826       54.71928131380453       54.79312988654210
H           61.17446716573905       74.49691389551168       54.38698543966377
H           62.07639083803353       75.85936454301621       53.72477105707829
C           71.91067737448368       49.33872841758089       67.45869911099263
C           70.73922777004503       50.28329562341084       67.20023319507403
C           69.75301127089099       50.21045697385298       68.36610398788915
C           70.01069795077632       49.94686578466328       65.89277828158883
C           70.84229142066837       50.07346344827536       64.61062277663508
C           71.28882818874905       51.51806391254513       64.38300583454725
C           70.03700887861929       49.59274190849742       63.39256141574463
C           69.78167100936967       48.08321533654311       63.30069019767946
C           71.09211696276664       47.29616216837721       63.24461265254219
C           68.96154394724961       47.73826602919854       62.04694069799295
C           67.52773397615847       48.28051247834707       61.97455798685206
C           66.68963337196172       47.80817640088973       63.16227578927499
C           66.86377609037261       47.83119473254018       60.65989577234073
C           67.28358775045113       48.63511587446968       59.42259633309819
C           66.61706206382389       50.01113029673859       59.43147081396734
C           66.89802355702331       47.92931864363376       58.11300108149710
C           67.58827581269645       46.59487249327567       57.80432029797672
C           69.11041734218669       46.72452664093035       57.83529303391555
C           67.16555060011278       46.07499732245787       56.41924687127230
C           65.70956168710103       45.61304438543260       56.28004305343227
C           65.43692322976291       44.39998404536347       57.16557277992152
C           65.39976718852931       45.24335112537799       54.81948145041883
C           64.99870417074249       46.41459116614421       53.91079753861369
C           63.57521556849864       46.86801462878782       54.22789304679857
C           65.11717945082614       45.97084582385343       52.44584719939251
C           64.90965277534968       47.05257628548789       51.37413007013070
C           64.76811595469697       46.37611345666895       50.01112547257963
C           66.07939096792410       48.04334235963196       51.37863102127126
C           66.01578554121670       49.21961983690980       50.38854265221035
C           67.25295420908566       50.08852843738842       50.61761200867519
C           64.72628107450213       50.02629791624044       50.57759523113862
C           64.56612392585843       51.31148141158484       49.74899895164693
C           63.31079086687043       52.02727804983096       50.25122112225964
C           64.45617710503841       51.00234191672538       48.25050882220404
C           64.37665867958572       52.23736768611119       47.33586157816035
C           63.65146621917057       51.87372462664038       46.03957500234704
C           65.76774147261314       52.83110903959123       47.04110492309429
C           65.83759958390927       54.35436772268129       47.19962941342680
C           64.87691302051525       55.06821888360101       46.24859981998373
C           67.24733438379998       54.89686535782309       46.92743457445721
C           68.39076624331275       54.35133495210037       47.79120934700652
C           68.03551967148006       54.38095796442320       49.27668735168895
C           69.66756957597030       55.18240563147185       47.57832634021336
C           70.14144868583877       55.33461502390809       46.12912753471322
C           70.46065370287710       53.97921750826939       45.50335779921529
C           71.37837009286447       56.24563541407343       46.06126868539459
C           71.48685286747570       56.99486199710289       44.72353485478250
C           72.94121833391772       57.38796701054721       44.46632208204489
C           70.56855501300252       58.23376922710803       44.70659439637381
C           69.71174446017733       58.39701016546717       43.44468470014826
C           70.55974941568930       58.45075133874204       42.17402808960706
C           68.87377151690970       59.68500883373125       43.50394062561143
C           67.91759280354944       59.84535952113322       44.69169476617461
C           66.95558415429865       58.66218326079088       44.79790678966561
C           67.09671978319849       61.13963861315555       44.55973842928447
C           67.88796234483961       62.45281388130245       44.52733066780093
C           68.74087335069855       62.62367861132369       45.78450273099623
C           66.94847629781447       63.66464195143356       44.41275228842782
C           66.10646620868094       63.77553895794365       43.13442987288429
C           66.98331633330345       63.73514783622621       41.88319311897944
C           65.30465723593024       65.08879788161470       43.14021213934838
C           64.08898518385578       65.12381153776840       44.07828649598178
C           62.95379318749833       64.28035963708851       43.50544594714930
C           63.62951231233814       66.57529356970910       44.27008594671466
C           62.53162605009614       66.78796681208939       45.32183825369488
C           61.99914353829023       68.21719242806435       45.20725712343991
C           63.03550702076774       66.51907841911135       46.75208186527622
C           62.62009756711416       65.16995654257096       47.35987820281679
C           61.11423968963923       65.13333797617719       47.60583469500670
C           63.39295905863868       64.95720925445360       48.66932560452140
C           63.32108337074781       63.55063350770493       49.28074913186964
C           64.02442884656767       63.57014007824264       50.63783964709826
C           63.94552589075024       62.49022583736947       48.35505741779464
C           62.90614435722301       61.62640933060599       47.61988888946188
C           62.45867035010955       60.46939583561156       48.50967066003124
C           63.48566108558804       61.12310275925206       46.29460196704446
C           62.51948259597874       60.38319040187362       45.35490967944245
C           63.27735632142696       60.08124670037969       44.06219005088333
C           61.25183669702552       61.22062109008095       45.12077293346735
C           60.42319050752356       60.90302003324926       43.86836120669862
C           59.28027887726852       61.91300091591054       43.77188093695136
C           59.88621759597115       59.46880902924108       43.90319867787832
C           59.23578812492571       58.95469768603515       42.60938891492426
C           58.60912388690760       57.59214417315465       42.90538801208508
C           60.25520461754478       58.84293012889038       41.46853729076117
C           59.65114781817627       58.47782354315213       40.09768674280123
C           60.32950003945967       57.23239053473025       39.52738034143579
C           59.76924767142020       59.62513420026852       39.08717500173016
C           58.91795855636639       60.84016828863430       39.44472777535746
C           59.02195020433199       61.93179880187534       38.38667489488464
H           72.68420291600418       49.45341647899033       66.70401095231263
H           72.35614911462692       49.54754275745510       68.42916365466144
H           71.57178417658282       48.30450070630810       67.45344021883311
H           60.04913409876011       62.27880384887538       38.29300701830866
H           58.70023889974591       61.55773616180833       37.41672194949732
H           58.39654626102028       62.78234826930612       38.64761105127030
H           60.81639833772123       59.92569463999712       39.00197135569802
H           59.45545248215127       59.25874789856847       38.10592174760264
H           60.78974158890510       59.78792114231346       41.37378621889746
H           60.99085414925964       58.08674452540711       41.75111716970343
H           58.44011278565609       59.64123552045173       42.30515663441685
H           59.36717515084892       56.89668192638625       43.26205848842110
H           57.84576082619950       57.68324175759105       43.67572265659116
H           58.15141808040769       57.16865143799554       42.01610658128707
H           60.69823738317582       58.78659970117460       44.16004963868063
H           59.14773096747028       59.40661788923934       44.70635816682692
H           60.60089846180016       61.11790536733773       45.99237642977278
H           61.54912927784436       62.26859657409101       45.05521796414418
H           58.58576200804559       58.25781624581537       40.21980972963077
H           61.37570877028540       57.43741405179757       39.31243026876379
H           60.27873066841136       56.40942729210255       40.23702901880137